 -0.12000000000000000          0.0000000000000000     
 -0.11989999999999999          0.0000000000000000     
 -0.11979999999999999          0.0000000000000000     
 -0.11970000000000000          0.0000000000000000     
 -0.11960000000000000          0.0000000000000000     
 -0.11950000000000000          0.0000000000000000     
 -0.11939999999999999          0.0000000000000000     
 -0.11929999999999999          0.0000000000000000     
 -0.11920000000000000          0.0000000000000000     
 -0.11910000000000000          0.0000000000000000     
 -0.11899999999999999          0.0000000000000000     
 -0.11889999999999999          0.0000000000000000     
 -0.11879999999999999          0.0000000000000000     
 -0.11870000000000000          0.0000000000000000     
 -0.11860000000000000          0.0000000000000000     
 -0.11849999999999999          0.0000000000000000     
 -0.11839999999999999          0.0000000000000000     
 -0.11829999999999999          0.0000000000000000     
 -0.11820000000000000          0.0000000000000000     
 -0.11810000000000000          0.0000000000000000     
 -0.11799999999999999          0.0000000000000000     
 -0.11789999999999999          0.0000000000000000     
 -0.11780000000000000          0.0000000000000000     
 -0.11770000000000000          0.0000000000000000     
 -0.11760000000000000          0.0000000000000000     
 -0.11749999999999999          0.0000000000000000     
 -0.11739999999999999          0.0000000000000000     
 -0.11730000000000000          0.0000000000000000     
 -0.11720000000000000          0.0000000000000000     
 -0.11710000000000000          0.0000000000000000     
 -0.11699999999999999          0.0000000000000000     
 -0.11689999999999999          0.0000000000000000     
 -0.11680000000000000          0.0000000000000000     
 -0.11670000000000000          0.0000000000000000     
 -0.11660000000000000          0.0000000000000000     
 -0.11649999999999999          0.0000000000000000     
 -0.11639999999999999          0.0000000000000000     
 -0.11630000000000000          0.0000000000000000     
 -0.11620000000000000          0.0000000000000000     
 -0.11609999999999999          0.0000000000000000     
 -0.11599999999999999          0.0000000000000000     
 -0.11589999999999999          0.0000000000000000     
 -0.11580000000000000          0.0000000000000000     
 -0.11570000000000000          0.0000000000000000     
 -0.11559999999999999          0.0000000000000000     
 -0.11549999999999999          0.0000000000000000     
 -0.11540000000000000          0.0000000000000000     
 -0.11530000000000000          0.0000000000000000     
 -0.11520000000000000          0.0000000000000000     
 -0.11509999999999999          0.0000000000000000     
 -0.11499999999999999          0.0000000000000000     
 -0.11490000000000000          0.0000000000000000     
 -0.11480000000000000          0.0000000000000000     
 -0.11470000000000000          0.0000000000000000     
 -0.11459999999999999          0.0000000000000000     
 -0.11449999999999999          0.0000000000000000     
 -0.11440000000000000          0.0000000000000000     
 -0.11430000000000000          0.0000000000000000     
 -0.11420000000000000          0.0000000000000000     
 -0.11409999999999999          0.0000000000000000     
 -0.11399999999999999          0.0000000000000000     
 -0.11390000000000000          0.0000000000000000     
 -0.11380000000000000          0.0000000000000000     
 -0.11370000000000000          0.0000000000000000     
 -0.11359999999999999          0.0000000000000000     
 -0.11349999999999999          0.0000000000000000     
 -0.11340000000000000          0.0000000000000000     
 -0.11330000000000000          0.0000000000000000     
 -0.11320000000000000          0.0000000000000000     
 -0.11309999999999999          0.0000000000000000     
 -0.11299999999999999          0.0000000000000000     
 -0.11290000000000000          0.0000000000000000     
 -0.11280000000000000          0.0000000000000000     
 -0.11269999999999999          0.0000000000000000     
 -0.11259999999999999          0.0000000000000000     
 -0.11249999999999999          0.0000000000000000     
 -0.11240000000000000          0.0000000000000000     
 -0.11230000000000000          0.0000000000000000     
 -0.11219999999999999          0.0000000000000000     
 -0.11209999999999999          0.0000000000000000     
 -0.11199999999999999          0.0000000000000000     
 -0.11190000000000000          0.0000000000000000     
 -0.11180000000000000          0.0000000000000000     
 -0.11169999999999999          0.0000000000000000     
 -0.11159999999999999          0.0000000000000000     
 -0.11149999999999999          0.0000000000000000     
 -0.11140000000000000          0.0000000000000000     
 -0.11130000000000000          0.0000000000000000     
 -0.11119999999999999          0.0000000000000000     
 -0.11109999999999999          0.0000000000000000     
 -0.11099999999999999          0.0000000000000000     
 -0.11090000000000000          0.0000000000000000     
 -0.11080000000000000          0.0000000000000000     
 -0.11069999999999999          0.0000000000000000     
 -0.11059999999999999          0.0000000000000000     
 -0.11050000000000000          0.0000000000000000     
 -0.11040000000000000          0.0000000000000000     
 -0.11030000000000000          0.0000000000000000     
 -0.11019999999999999          0.0000000000000000     
 -0.11009999999999999          0.0000000000000000     
 -0.11000000000000000          0.0000000000000000     
 -0.10990000000000000          0.0000000000000000     
 -0.10979999999999999          0.0000000000000000     
 -0.10969999999999999          0.0000000000000000     
 -0.10959999999999999          0.0000000000000000     
 -0.10950000000000000          0.0000000000000000     
 -0.10940000000000000          0.0000000000000000     
 -0.10929999999999999          0.0000000000000000     
 -0.10919999999999999          0.0000000000000000     
 -0.10910000000000000          0.0000000000000000     
 -0.10900000000000000          0.0000000000000000     
 -0.10890000000000000          0.0000000000000000     
 -0.10879999999999999          0.0000000000000000     
 -0.10869999999999999          0.0000000000000000     
 -0.10860000000000000          0.0000000000000000     
 -0.10850000000000000          0.0000000000000000     
 -0.10840000000000000          0.0000000000000000     
 -0.10829999999999999          0.0000000000000000     
 -0.10819999999999999          0.0000000000000000     
 -0.10810000000000000          0.0000000000000000     
 -0.10800000000000000          0.0000000000000000     
 -0.10790000000000000          0.0000000000000000     
 -0.10779999999999999          0.0000000000000000     
 -0.10769999999999999          0.0000000000000000     
 -0.10760000000000000          0.0000000000000000     
 -0.10750000000000000          0.0000000000000000     
 -0.10740000000000000          0.0000000000000000     
 -0.10729999999999999          0.0000000000000000     
 -0.10719999999999999          0.0000000000000000     
 -0.10710000000000000          0.0000000000000000     
 -0.10700000000000000          0.0000000000000000     
 -0.10690000000000000          0.0000000000000000     
 -0.10679999999999999          0.0000000000000000     
 -0.10669999999999999          0.0000000000000000     
 -0.10660000000000000          0.0000000000000000     
 -0.10650000000000000          0.0000000000000000     
 -0.10639999999999999          0.0000000000000000     
 -0.10629999999999999          0.0000000000000000     
 -0.10619999999999999          0.0000000000000000     
 -0.10610000000000000          0.0000000000000000     
 -0.10600000000000000          0.0000000000000000     
 -0.10589999999999999          0.0000000000000000     
 -0.10579999999999999          0.0000000000000000     
 -0.10569999999999999          0.0000000000000000     
 -0.10560000000000000          0.0000000000000000     
 -0.10550000000000000          0.0000000000000000     
 -0.10539999999999999          0.0000000000000000     
 -0.10529999999999999          0.0000000000000000     
 -0.10519999999999999          0.0000000000000000     
 -0.10510000000000000          0.0000000000000000     
 -0.10500000000000000          0.0000000000000000     
 -0.10489999999999999          0.0000000000000000     
 -0.10479999999999999          0.0000000000000000     
 -0.10469999999999999          0.0000000000000000     
 -0.10460000000000000          0.0000000000000000     
 -0.10450000000000000          0.0000000000000000     
 -0.10439999999999999          0.0000000000000000     
 -0.10429999999999999          0.0000000000000000     
 -0.10419999999999999          0.0000000000000000     
 -0.10410000000000000          0.0000000000000000     
 -0.10400000000000000          0.0000000000000000     
 -0.10389999999999999          0.0000000000000000     
 -0.10380000000000000          0.0000000000000000     
 -0.10369999999999999          0.0000000000000000     
 -0.10360000000000000          0.0000000000000000     
 -0.10349999999999999          0.0000000000000000     
 -0.10339999999999999          0.0000000000000000     
 -0.10330000000000000          0.0000000000000000     
 -0.10319999999999999          0.0000000000000000     
 -0.10310000000000000          0.0000000000000000     
 -0.10299999999999999          0.0000000000000000     
 -0.10289999999999999          0.0000000000000000     
 -0.10280000000000000          0.0000000000000000     
 -0.10270000000000000          0.0000000000000000     
 -0.10260000000000000          0.0000000000000000     
 -0.10249999999999999          0.0000000000000000     
 -0.10239999999999999          0.0000000000000000     
 -0.10230000000000000          0.0000000000000000     
 -0.10220000000000000          0.0000000000000000     
 -0.10210000000000000          0.0000000000000000     
 -0.10199999999999999          0.0000000000000000     
 -0.10189999999999999          0.0000000000000000     
 -0.10180000000000000          0.0000000000000000     
 -0.10170000000000000          0.0000000000000000     
 -0.10160000000000000          0.0000000000000000     
 -0.10149999999999999          0.0000000000000000     
 -0.10139999999999999          0.0000000000000000     
 -0.10130000000000000          0.0000000000000000     
 -0.10120000000000000          0.0000000000000000     
 -0.10110000000000000          0.0000000000000000     
 -0.10099999999999999          0.0000000000000000     
 -0.10089999999999999          0.0000000000000000     
 -0.10080000000000000          0.0000000000000000     
 -0.10070000000000000          0.0000000000000000     
 -0.10059999999999999          0.0000000000000000     
 -0.10049999999999999          0.0000000000000000     
 -0.10039999999999999          0.0000000000000000     
 -0.10030000000000000          0.0000000000000000     
 -0.10020000000000000          0.0000000000000000     
 -0.10009999999999999          0.0000000000000000     
  -9.9999999999999992E-002     0.0000000000000000     
  -9.9899999999999989E-002     0.0000000000000000     
  -9.9800000000000000E-002     0.0000000000000000     
  -9.9699999999999997E-002     0.0000000000000000     
  -9.9599999999999994E-002     0.0000000000000000     
  -9.9499999999999991E-002     0.0000000000000000     
  -9.9399999999999988E-002     0.0000000000000000     
  -9.9299999999999999E-002     0.0000000000000000     
  -9.9199999999999997E-002     0.0000000000000000     
  -9.9099999999999994E-002     0.0000000000000000     
  -9.8999999999999991E-002     0.0000000000000000     
  -9.8899999999999988E-002     0.0000000000000000     
  -9.8799999999999999E-002     0.0000000000000000     
  -9.8699999999999996E-002     0.0000000000000000     
  -9.8599999999999993E-002     0.0000000000000000     
  -9.8499999999999990E-002     0.0000000000000000     
  -9.8399999999999987E-002     0.0000000000000000     
  -9.8299999999999998E-002     0.0000000000000000     
  -9.8199999999999996E-002     0.0000000000000000     
  -9.8099999999999993E-002     0.0000000000000000     
  -9.7999999999999990E-002     0.0000000000000000     
  -9.7899999999999987E-002     0.0000000000000000     
  -9.7799999999999998E-002     0.0000000000000000     
  -9.7699999999999995E-002     0.0000000000000000     
  -9.7599999999999992E-002     0.0000000000000000     
  -9.7499999999999989E-002     0.0000000000000000     
  -9.7399999999999987E-002     0.0000000000000000     
  -9.7299999999999998E-002     0.0000000000000000     
  -9.7199999999999995E-002     0.0000000000000000     
  -9.7099999999999992E-002     0.0000000000000000     
  -9.7000000000000003E-002     0.0000000000000000     
  -9.6899999999999986E-002     0.0000000000000000     
  -9.6799999999999997E-002     0.0000000000000000     
  -9.6699999999999994E-002     0.0000000000000000     
  -9.6599999999999991E-002     0.0000000000000000     
  -9.6500000000000002E-002     0.0000000000000000     
  -9.6400000000000000E-002     0.0000000000000000     
  -9.6299999999999997E-002     0.0000000000000000     
  -9.6199999999999994E-002     0.0000000000000000     
  -9.6099999999999991E-002     0.0000000000000000     
  -9.6000000000000002E-002     0.0000000000000000     
  -9.5899999999999999E-002     0.0000000000000000     
  -9.5799999999999996E-002     0.0000000000000000     
  -9.5699999999999993E-002     0.0000000000000000     
  -9.5599999999999991E-002     0.0000000000000000     
  -9.5500000000000002E-002     0.0000000000000000     
  -9.5399999999999999E-002     0.0000000000000000     
  -9.5299999999999996E-002     0.0000000000000000     
  -9.5199999999999993E-002     0.0000000000000000     
  -9.5099999999999990E-002     0.0000000000000000     
  -9.5000000000000001E-002     0.0000000000000000     
  -9.4899999999999998E-002     0.0000000000000000     
  -9.4799999999999995E-002     0.0000000000000000     
  -9.4699999999999993E-002     0.0000000000000000     
  -9.4599999999999990E-002     0.0000000000000000     
  -9.4500000000000001E-002     0.0000000000000000     
  -9.4399999999999998E-002     0.0000000000000000     
  -9.4299999999999995E-002     0.0000000000000000     
  -9.4199999999999992E-002     0.0000000000000000     
  -9.4099999999999989E-002     0.0000000000000000     
  -9.4000000000000000E-002     0.0000000000000000     
  -9.3899999999999997E-002     0.0000000000000000     
  -9.3799999999999994E-002     0.0000000000000000     
  -9.3699999999999992E-002     0.0000000000000000     
  -9.3599999999999989E-002     0.0000000000000000     
  -9.3500000000000000E-002     0.0000000000000000     
  -9.3399999999999997E-002     0.0000000000000000     
  -9.3299999999999994E-002     0.0000000000000000     
  -9.3199999999999991E-002     0.0000000000000000     
  -9.3099999999999988E-002     0.0000000000000000     
  -9.2999999999999999E-002     0.0000000000000000     
  -9.2899999999999996E-002     0.0000000000000000     
  -9.2799999999999994E-002     0.0000000000000000     
  -9.2699999999999991E-002     0.0000000000000000     
  -9.2599999999999988E-002     0.0000000000000000     
  -9.2499999999999999E-002     0.0000000000000000     
  -9.2399999999999996E-002     0.0000000000000000     
  -9.2299999999999993E-002     0.0000000000000000     
  -9.2199999999999990E-002     0.0000000000000000     
  -9.2099999999999987E-002     0.0000000000000000     
  -9.1999999999999998E-002     0.0000000000000000     
  -9.1899999999999996E-002     0.0000000000000000     
  -9.1799999999999993E-002     0.0000000000000000     
  -9.1699999999999990E-002     0.0000000000000000     
  -9.1599999999999987E-002     0.0000000000000000     
  -9.1499999999999998E-002     0.0000000000000000     
  -9.1399999999999995E-002     0.0000000000000000     
  -9.1299999999999992E-002     0.0000000000000000     
  -9.1199999999999989E-002     0.0000000000000000     
  -9.1099999999999987E-002     0.0000000000000000     
  -9.0999999999999998E-002     0.0000000000000000     
  -9.0899999999999995E-002     0.0000000000000000     
  -9.0799999999999992E-002     0.0000000000000000     
  -9.0699999999999989E-002     0.0000000000000000     
  -9.0599999999999986E-002     0.0000000000000000     
  -9.0499999999999997E-002     0.0000000000000000     
  -9.0399999999999994E-002     0.0000000000000000     
  -9.0299999999999991E-002     0.0000000000000000     
  -9.0200000000000002E-002     0.0000000000000000     
  -9.0099999999999986E-002     0.0000000000000000     
  -8.9999999999999997E-002     0.0000000000000000     
  -8.9899999999999994E-002     0.0000000000000000     
  -8.9799999999999991E-002     0.0000000000000000     
  -8.9700000000000002E-002     0.0000000000000000     
  -8.9599999999999999E-002     0.0000000000000000     
  -8.9499999999999996E-002     0.0000000000000000     
  -8.9399999999999993E-002     0.0000000000000000     
  -8.9299999999999990E-002     0.0000000000000000     
  -8.9200000000000002E-002     0.0000000000000000     
  -8.9099999999999999E-002     0.0000000000000000     
  -8.8999999999999996E-002     0.0000000000000000     
  -8.8899999999999993E-002     0.0000000000000000     
  -8.8799999999999990E-002     0.0000000000000000     
  -8.8700000000000001E-002     0.0000000000000000     
  -8.8599999999999984E-002     0.0000000000000000     
  -8.8499999999999995E-002     0.0000000000000000     
  -8.8399999999999992E-002     0.0000000000000000     
  -8.8299999999999990E-002     0.0000000000000000     
  -8.8200000000000001E-002     0.0000000000000000     
  -8.8099999999999984E-002     0.0000000000000000     
  -8.7999999999999995E-002     0.0000000000000000     
  -8.7899999999999992E-002     0.0000000000000000     
  -8.7799999999999989E-002     0.0000000000000000     
  -8.7700000000000000E-002     0.0000000000000000     
  -8.7599999999999997E-002     0.0000000000000000     
  -8.7499999999999994E-002     0.0000000000000000     
  -8.7399999999999992E-002     0.0000000000000000     
  -8.7299999999999989E-002     0.0000000000000000     
  -8.7200000000000000E-002     0.0000000000000000     
  -8.7099999999999997E-002     0.0000000000000000     
  -8.6999999999999994E-002     0.0000000000000000     
  -8.6899999999999991E-002     0.0000000000000000     
  -8.6799999999999988E-002     0.0000000000000000     
  -8.6699999999999999E-002     0.0000000000000000     
  -8.6599999999999996E-002     0.0000000000000000     
  -8.6499999999999994E-002     0.0000000000000000     
  -8.6399999999999991E-002     0.0000000000000000     
  -8.6299999999999988E-002     0.0000000000000000     
  -8.6199999999999999E-002     0.0000000000000000     
  -8.6099999999999996E-002     0.0000000000000000     
  -8.5999999999999993E-002     0.0000000000000000     
  -8.5900000000000004E-002     0.0000000000000000     
  -8.5799999999999987E-002     0.0000000000000000     
  -8.5699999999999998E-002     0.0000000000000000     
  -8.5599999999999996E-002     0.0000000000000000     
  -8.5499999999999993E-002     0.0000000000000000     
  -8.5400000000000004E-002     0.0000000000000000     
  -8.5299999999999987E-002     0.0000000000000000     
  -8.5199999999999998E-002     0.0000000000000000     
  -8.5099999999999995E-002     0.0000000000000000     
  -8.4999999999999992E-002     0.0000000000000000     
  -8.4900000000000003E-002     0.0000000000000000     
  -8.4799999999999986E-002     0.0000000000000000     
  -8.4699999999999998E-002     0.0000000000000000     
  -8.4599999999999995E-002     0.0000000000000000     
  -8.4499999999999992E-002     0.0000000000000000     
  -8.4400000000000003E-002     0.0000000000000000     
  -8.4299999999999986E-002     0.0000000000000000     
  -8.4199999999999997E-002     0.0000000000000000     
  -8.4099999999999994E-002     0.0000000000000000     
  -8.3999999999999991E-002     0.0000000000000000     
  -8.3900000000000002E-002     0.0000000000000000     
  -8.3799999999999986E-002     0.0000000000000000     
  -8.3699999999999997E-002     0.0000000000000000     
  -8.3599999999999994E-002     0.0000000000000000     
  -8.3499999999999991E-002     0.0000000000000000     
  -8.3400000000000002E-002     0.0000000000000000     
  -8.3299999999999985E-002     0.0000000000000000     
  -8.3199999999999996E-002     0.0000000000000000     
  -8.3099999999999993E-002     0.0000000000000000     
  -8.2999999999999990E-002     0.0000000000000000     
  -8.2900000000000001E-002     0.0000000000000000     
  -8.2799999999999985E-002     0.0000000000000000     
  -8.2699999999999996E-002     0.0000000000000000     
  -8.2599999999999993E-002     0.0000000000000000     
  -8.2499999999999990E-002     0.0000000000000000     
  -8.2400000000000001E-002     0.0000000000000000     
  -8.2299999999999984E-002     0.0000000000000000     
  -8.2199999999999995E-002     0.0000000000000000     
  -8.2099999999999992E-002     0.0000000000000000     
  -8.1999999999999990E-002     0.0000000000000000     
  -8.1900000000000001E-002     0.0000000000000000     
  -8.1799999999999984E-002     0.0000000000000000     
  -8.1699999999999995E-002     0.0000000000000000     
  -8.1599999999999992E-002     0.0000000000000000     
  -8.1499999999999989E-002     0.0000000000000000     
  -8.1400000000000000E-002     0.0000000000000000     
  -8.1299999999999983E-002     0.0000000000000000     
  -8.1199999999999994E-002     0.0000000000000000     
  -8.1099999999999992E-002     0.0000000000000000     
  -8.0999999999999989E-002     0.0000000000000000     
  -8.0900000000000000E-002     0.0000000000000000     
  -8.0799999999999997E-002     0.0000000000000000     
  -8.0699999999999994E-002     0.0000000000000000     
  -8.0599999999999991E-002     0.0000000000000000     
  -8.0499999999999988E-002     0.0000000000000000     
  -8.0399999999999999E-002     0.0000000000000000     
  -8.0299999999999996E-002     0.0000000000000000     
  -8.0199999999999994E-002     0.0000000000000000     
  -8.0099999999999991E-002     0.0000000000000000     
  -7.9999999999999988E-002     0.0000000000000000     
  -7.9899999999999999E-002     0.0000000000000000     
  -7.9799999999999996E-002     0.0000000000000000     
  -7.9699999999999993E-002     0.0000000000000000     
  -7.9599999999999990E-002     0.0000000000000000     
  -7.9499999999999987E-002     0.0000000000000000     
  -7.9399999999999998E-002     0.0000000000000000     
  -7.9299999999999995E-002     0.0000000000000000     
  -7.9199999999999993E-002     0.0000000000000000     
  -7.9100000000000004E-002     0.0000000000000000     
  -7.8999999999999987E-002     0.0000000000000000     
  -7.8899999999999998E-002     0.0000000000000000     
  -7.8799999999999995E-002     0.0000000000000000     
  -7.8699999999999992E-002     0.0000000000000000     
  -7.8600000000000003E-002     0.0000000000000000     
  -7.8499999999999986E-002     0.0000000000000000     
  -7.8399999999999997E-002     0.0000000000000000     
  -7.8299999999999995E-002     0.0000000000000000     
  -7.8199999999999992E-002     0.0000000000000000     
  -7.8100000000000003E-002     0.0000000000000000     
  -7.7999999999999986E-002     0.0000000000000000     
  -7.7899999999999997E-002     0.0000000000000000     
  -7.7799999999999994E-002     0.0000000000000000     
  -7.7699999999999991E-002     0.0000000000000000     
  -7.7600000000000002E-002     0.0000000000000000     
  -7.7499999999999986E-002     0.0000000000000000     
  -7.7399999999999997E-002     0.0000000000000000     
  -7.7299999999999994E-002     0.0000000000000000     
  -7.7199999999999991E-002     0.0000000000000000     
  -7.7100000000000002E-002     0.0000000000000000     
  -7.6999999999999985E-002     0.0000000000000000     
  -7.6899999999999996E-002     0.0000000000000000     
  -7.6799999999999993E-002     0.0000000000000000     
  -7.6699999999999990E-002     0.0000000000000000     
  -7.6600000000000001E-002     0.0000000000000000     
  -7.6499999999999985E-002     0.0000000000000000     
  -7.6399999999999996E-002     0.0000000000000000     
  -7.6299999999999993E-002     0.0000000000000000     
  -7.6199999999999990E-002     0.0000000000000000     
  -7.6100000000000001E-002     0.0000000000000000     
  -7.5999999999999984E-002     0.0000000000000000     
  -7.5899999999999995E-002     0.0000000000000000     
  -7.5799999999999992E-002     0.0000000000000000     
  -7.5699999999999990E-002     0.0000000000000000     
  -7.5600000000000001E-002     0.0000000000000000     
  -7.5499999999999984E-002     0.0000000000000000     
  -7.5399999999999995E-002     0.0000000000000000     
  -7.5299999999999992E-002     0.0000000000000000     
  -7.5199999999999989E-002     0.0000000000000000     
  -7.5100000000000000E-002     0.0000000000000000     
  -7.4999999999999983E-002     0.0000000000000000     
  -7.4899999999999994E-002     0.0000000000000000     
  -7.4799999999999991E-002     0.0000000000000000     
  -7.4699999999999989E-002     0.0000000000000000     
  -7.4600000000000000E-002     0.0000000000000000     
  -7.4499999999999997E-002     0.0000000000000000     
  -7.4399999999999994E-002     0.0000000000000000     
  -7.4299999999999991E-002     0.0000000000000000     
  -7.4199999999999988E-002     0.0000000000000000     
  -7.4099999999999999E-002     0.0000000000000000     
  -7.3999999999999996E-002     0.0000000000000000     
  -7.3899999999999993E-002     0.0000000000000000     
  -7.3799999999999991E-002     0.0000000000000000     
  -7.3699999999999988E-002     0.0000000000000000     
  -7.3599999999999999E-002     0.0000000000000000     
  -7.3499999999999996E-002     0.0000000000000000     
  -7.3399999999999993E-002     0.0000000000000000     
  -7.3299999999999990E-002     0.0000000000000000     
  -7.3199999999999987E-002     0.0000000000000000     
  -7.3099999999999998E-002     0.0000000000000000     
  -7.2999999999999995E-002     0.0000000000000000     
  -7.2899999999999993E-002     0.0000000000000000     
  -7.2800000000000004E-002     0.0000000000000000     
  -7.2699999999999987E-002     0.0000000000000000     
  -7.2599999999999998E-002     0.0000000000000000     
  -7.2499999999999995E-002     0.0000000000000000     
  -7.2399999999999992E-002     0.0000000000000000     
  -7.2300000000000003E-002     0.0000000000000000     
  -7.2199999999999986E-002     0.0000000000000000     
  -7.2099999999999997E-002     0.0000000000000000     
  -7.1999999999999995E-002     0.0000000000000000     
  -7.1899999999999992E-002     0.0000000000000000     
  -7.1800000000000003E-002     0.0000000000000000     
  -7.1699999999999986E-002     0.0000000000000000     
  -7.1599999999999997E-002     0.0000000000000000     
  -7.1499999999999994E-002     0.0000000000000000     
  -7.1399999999999991E-002     0.0000000000000000     
  -7.1300000000000002E-002     0.0000000000000000     
  -7.1199999999999986E-002     0.0000000000000000     
  -7.1099999999999997E-002     0.0000000000000000     
  -7.0999999999999994E-002     0.0000000000000000     
  -7.0899999999999991E-002     0.0000000000000000     
  -7.0800000000000002E-002     0.0000000000000000     
  -7.0699999999999985E-002     0.0000000000000000     
  -7.0599999999999996E-002     0.0000000000000000     
  -7.0499999999999993E-002     0.0000000000000000     
  -7.0399999999999990E-002     0.0000000000000000     
  -7.0300000000000001E-002     0.0000000000000000     
  -7.0199999999999985E-002     0.0000000000000000     
  -7.0099999999999996E-002     0.0000000000000000     
  -6.9999999999999993E-002     0.0000000000000000     
  -6.9899999999999990E-002     0.0000000000000000     
  -6.9800000000000001E-002     0.0000000000000000     
  -6.9699999999999984E-002     0.0000000000000000     
  -6.9599999999999995E-002     0.0000000000000000     
  -6.9499999999999992E-002     0.0000000000000000     
  -6.9399999999999989E-002     0.0000000000000000     
  -6.9300000000000000E-002     0.0000000000000000     
  -6.9199999999999984E-002     0.0000000000000000     
  -6.9099999999999995E-002     0.0000000000000000     
  -6.8999999999999992E-002     0.0000000000000000     
  -6.8899999999999989E-002     0.0000000000000000     
  -6.8800000000000000E-002     0.0000000000000000     
  -6.8699999999999983E-002     0.0000000000000000     
  -6.8599999999999994E-002     0.0000000000000000     
  -6.8499999999999991E-002     0.0000000000000000     
  -6.8399999999999989E-002     0.0000000000000000     
  -6.8300000000000000E-002     0.0000000000000000     
  -6.8199999999999983E-002     0.0000000000000000     
  -6.8099999999999994E-002     0.0000000000000000     
  -6.7999999999999991E-002     0.0000000000000000     
  -6.7899999999999988E-002     0.0000000000000000     
  -6.7799999999999999E-002     0.0000000000000000     
  -6.7699999999999996E-002     0.0000000000000000     
  -6.7599999999999993E-002     0.0000000000000000     
  -6.7499999999999991E-002     0.0000000000000000     
  -6.7399999999999988E-002     0.0000000000000000     
  -6.7299999999999999E-002     0.0000000000000000     
  -6.7199999999999996E-002     0.0000000000000000     
  -6.7099999999999993E-002     0.0000000000000000     
  -6.6999999999999990E-002     0.0000000000000000     
  -6.6899999999999987E-002     0.0000000000000000     
  -6.6799999999999998E-002     0.0000000000000000     
  -6.6699999999999995E-002     0.0000000000000000     
  -6.6599999999999993E-002     0.0000000000000000     
  -6.6499999999999990E-002     0.0000000000000000     
  -6.6399999999999987E-002     0.0000000000000000     
  -6.6299999999999998E-002     0.0000000000000000     
  -6.6199999999999995E-002     0.0000000000000000     
  -6.6099999999999992E-002     0.0000000000000000     
  -6.6000000000000003E-002     0.0000000000000000     
  -6.5899999999999986E-002     0.0000000000000000     
  -6.5799999999999997E-002     0.0000000000000000     
  -6.5699999999999995E-002     0.0000000000000000     
  -6.5599999999999992E-002     0.0000000000000000     