  -1.2000000000000000          0.0000000000000000     
  -1.1999000000000000          0.0000000000000000     
  -1.1998000000000000          0.0000000000000000     
  -1.1997000000000000          0.0000000000000000     
  -1.1996000000000000          0.0000000000000000     
  -1.1995000000000000          0.0000000000000000     
  -1.1994000000000000          0.0000000000000000     
  -1.1993000000000000          0.0000000000000000     
  -1.1992000000000000          0.0000000000000000     
  -1.1991000000000001          0.0000000000000000     
  -1.1990000000000001          0.0000000000000000     
  -1.1988999999999999          0.0000000000000000     
  -1.1987999999999999          0.0000000000000000     
  -1.1986999999999999          0.0000000000000000     
  -1.1985999999999999          0.0000000000000000     
  -1.1984999999999999          0.0000000000000000     
  -1.1983999999999999          0.0000000000000000     
  -1.1982999999999999          0.0000000000000000     
  -1.1981999999999999          0.0000000000000000     
  -1.1980999999999999          0.0000000000000000     
  -1.1980000000000000          0.0000000000000000     
  -1.1979000000000000          0.0000000000000000     
  -1.1978000000000000          0.0000000000000000     
  -1.1977000000000000          0.0000000000000000     
  -1.1976000000000000          0.0000000000000000     
  -1.1975000000000000          0.0000000000000000     
  -1.1974000000000000          0.0000000000000000     
  -1.1973000000000000          0.0000000000000000     
  -1.1972000000000000          0.0000000000000000     
  -1.1971000000000001          0.0000000000000000     
  -1.1970000000000001          0.0000000000000000     
  -1.1968999999999999          0.0000000000000000     
  -1.1967999999999999          0.0000000000000000     
  -1.1966999999999999          0.0000000000000000     
  -1.1965999999999999          0.0000000000000000     
  -1.1964999999999999          0.0000000000000000     
  -1.1963999999999999          0.0000000000000000     
  -1.1962999999999999          0.0000000000000000     
  -1.1961999999999999          0.0000000000000000     
  -1.1960999999999999          0.0000000000000000     
  -1.1960000000000000          0.0000000000000000     
  -1.1959000000000000          0.0000000000000000     
  -1.1958000000000000          0.0000000000000000     
  -1.1957000000000000          0.0000000000000000     
  -1.1956000000000000          0.0000000000000000     
  -1.1955000000000000          0.0000000000000000     
  -1.1954000000000000          0.0000000000000000     
  -1.1953000000000000          0.0000000000000000     
  -1.1952000000000000          0.0000000000000000     
  -1.1951000000000001          0.0000000000000000     
  -1.1950000000000001          0.0000000000000000     
  -1.1948999999999999          0.0000000000000000     
  -1.1947999999999999          0.0000000000000000     
  -1.1946999999999999          0.0000000000000000     
  -1.1945999999999999          0.0000000000000000     
  -1.1944999999999999          0.0000000000000000     
  -1.1943999999999999          0.0000000000000000     
  -1.1942999999999999          0.0000000000000000     
  -1.1941999999999999          0.0000000000000000     
  -1.1940999999999999          0.0000000000000000     
  -1.1940000000000000          0.0000000000000000     
  -1.1939000000000000          0.0000000000000000     
  -1.1938000000000000          0.0000000000000000     
  -1.1937000000000000          0.0000000000000000     
  -1.1936000000000000          0.0000000000000000     
  -1.1935000000000000          0.0000000000000000     
  -1.1934000000000000          0.0000000000000000     
  -1.1933000000000000          0.0000000000000000     
  -1.1932000000000000          0.0000000000000000     
  -1.1931000000000000          0.0000000000000000     
  -1.1930000000000001          0.0000000000000000     
  -1.1928999999999998          0.0000000000000000     
  -1.1927999999999999          0.0000000000000000     
  -1.1926999999999999          0.0000000000000000     
  -1.1925999999999999          0.0000000000000000     
  -1.1924999999999999          0.0000000000000000     
  -1.1923999999999999          0.0000000000000000     
  -1.1922999999999999          0.0000000000000000     
  -1.1921999999999999          0.0000000000000000     
  -1.1920999999999999          0.0000000000000000     
  -1.1919999999999999          0.0000000000000000     
  -1.1919000000000000          0.0000000000000000     
  -1.1918000000000000          0.0000000000000000     
  -1.1917000000000000          0.0000000000000000     
  -1.1916000000000000          0.0000000000000000     
  -1.1915000000000000          0.0000000000000000     
  -1.1914000000000000          0.0000000000000000     
  -1.1913000000000000          0.0000000000000000     
  -1.1912000000000000          0.0000000000000000     
  -1.1911000000000000          0.0000000000000000     
  -1.1910000000000001          0.0000000000000000     
  -1.1908999999999998          0.0000000000000000     
  -1.1907999999999999          0.0000000000000000     
  -1.1906999999999999          0.0000000000000000     
  -1.1905999999999999          0.0000000000000000     
  -1.1904999999999999          0.0000000000000000     
  -1.1903999999999999          0.0000000000000000     
  -1.1902999999999999          0.0000000000000000     
  -1.1901999999999999          0.0000000000000000     
  -1.1900999999999999          0.0000000000000000     
  -1.1899999999999999          0.0000000000000000     
  -1.1899000000000000          0.0000000000000000     
  -1.1898000000000000          0.0000000000000000     
  -1.1897000000000000          0.0000000000000000     
  -1.1896000000000000          0.0000000000000000     
  -1.1895000000000000          0.0000000000000000     
  -1.1894000000000000          0.0000000000000000     
  -1.1893000000000000          0.0000000000000000     
  -1.1892000000000000          0.0000000000000000     
  -1.1891000000000000          0.0000000000000000     
  -1.1890000000000001          0.0000000000000000     
  -1.1888999999999998          0.0000000000000000     
  -1.1887999999999999          0.0000000000000000     
  -1.1886999999999999          0.0000000000000000     
  -1.1885999999999999          0.0000000000000000     
  -1.1884999999999999          0.0000000000000000     
  -1.1883999999999999          0.0000000000000000     
  -1.1882999999999999          0.0000000000000000     
  -1.1881999999999999          0.0000000000000000     
  -1.1880999999999999          0.0000000000000000     
  -1.1879999999999999          0.0000000000000000     
  -1.1879000000000000          0.0000000000000000     
  -1.1878000000000000          0.0000000000000000     
  -1.1877000000000000          0.0000000000000000     
  -1.1876000000000000          0.0000000000000000     
  -1.1875000000000000          0.0000000000000000     
  -1.1874000000000000          0.0000000000000000     
  -1.1873000000000000          0.0000000000000000     
  -1.1872000000000000          0.0000000000000000     
  -1.1871000000000000          0.0000000000000000     
  -1.1870000000000001          0.0000000000000000     
  -1.1869000000000001          0.0000000000000000     
  -1.1867999999999999          0.0000000000000000     
  -1.1866999999999999          0.0000000000000000     
  -1.1865999999999999          0.0000000000000000     
  -1.1864999999999999          0.0000000000000000     
  -1.1863999999999999          0.0000000000000000     
  -1.1862999999999999          0.0000000000000000     
  -1.1861999999999999          0.0000000000000000     
  -1.1860999999999999          0.0000000000000000     
  -1.1859999999999999          0.0000000000000000     
  -1.1859000000000000          0.0000000000000000     
  -1.1858000000000000          0.0000000000000000     
  -1.1857000000000000          0.0000000000000000     
  -1.1856000000000000          0.0000000000000000     
  -1.1855000000000000          0.0000000000000000     
  -1.1854000000000000          0.0000000000000000     
  -1.1853000000000000          0.0000000000000000     
  -1.1852000000000000          0.0000000000000000     
  -1.1851000000000000          0.0000000000000000     
  -1.1850000000000001          0.0000000000000000     
  -1.1849000000000001          0.0000000000000000     
  -1.1847999999999999          0.0000000000000000     
  -1.1846999999999999          0.0000000000000000     
  -1.1845999999999999          0.0000000000000000     
  -1.1844999999999999          0.0000000000000000     
  -1.1843999999999999          0.0000000000000000     
  -1.1842999999999999          0.0000000000000000     
  -1.1841999999999999          0.0000000000000000     
  -1.1840999999999999          0.0000000000000000     
  -1.1839999999999999          0.0000000000000000     
  -1.1839000000000000          0.0000000000000000     
  -1.1838000000000000          0.0000000000000000     
  -1.1837000000000000          0.0000000000000000     
  -1.1836000000000000          0.0000000000000000     
  -1.1835000000000000          0.0000000000000000     
  -1.1834000000000000          0.0000000000000000     
  -1.1833000000000000          0.0000000000000000     
  -1.1832000000000000          0.0000000000000000     
  -1.1831000000000000          0.0000000000000000     
  -1.1830000000000001          0.0000000000000000     
  -1.1829000000000001          0.0000000000000000     
  -1.1827999999999999          0.0000000000000000     
  -1.1826999999999999          0.0000000000000000     
  -1.1825999999999999          0.0000000000000000     
  -1.1824999999999999          0.0000000000000000     
  -1.1823999999999999          0.0000000000000000     
  -1.1822999999999999          0.0000000000000000     
  -1.1821999999999999          0.0000000000000000     
  -1.1820999999999999          0.0000000000000000     
  -1.1819999999999999          0.0000000000000000     
  -1.1819000000000000          0.0000000000000000     
  -1.1818000000000000          0.0000000000000000     
  -1.1817000000000000          0.0000000000000000     
  -1.1816000000000000          0.0000000000000000     
  -1.1815000000000000          0.0000000000000000     
  -1.1814000000000000          0.0000000000000000     
  -1.1813000000000000          0.0000000000000000     
  -1.1812000000000000          0.0000000000000000     
  -1.1811000000000000          0.0000000000000000     
  -1.1810000000000000          0.0000000000000000     
  -1.1809000000000001          0.0000000000000000     
  -1.1807999999999998          0.0000000000000000     
  -1.1806999999999999          0.0000000000000000     
  -1.1805999999999999          0.0000000000000000     
  -1.1804999999999999          0.0000000000000000     
  -1.1803999999999999          0.0000000000000000     
  -1.1802999999999999          0.0000000000000000     
  -1.1801999999999999          0.0000000000000000     
  -1.1800999999999999          0.0000000000000000     
  -1.1799999999999999          0.0000000000000000     
  -1.1798999999999999          0.0000000000000000     
  -1.1798000000000000          0.0000000000000000     
  -1.1797000000000000          0.0000000000000000     
  -1.1796000000000000          0.0000000000000000     
  -1.1795000000000000          0.0000000000000000     
  -1.1794000000000000          0.0000000000000000     
  -1.1793000000000000          0.0000000000000000     
  -1.1792000000000000          0.0000000000000000     
  -1.1791000000000000          0.0000000000000000     
  -1.1790000000000000          0.0000000000000000     
  -1.1789000000000001          0.0000000000000000     
  -1.1787999999999998          0.0000000000000000     
  -1.1786999999999999          0.0000000000000000     
  -1.1785999999999999          0.0000000000000000     
  -1.1784999999999999          0.0000000000000000     
  -1.1783999999999999          0.0000000000000000     
  -1.1782999999999999          0.0000000000000000     
  -1.1781999999999999          0.0000000000000000     
  -1.1780999999999999          0.0000000000000000     
  -1.1779999999999999          0.0000000000000000     
  -1.1778999999999999          0.0000000000000000     
  -1.1778000000000000          0.0000000000000000     
  -1.1777000000000000          0.0000000000000000     
  -1.1776000000000000          0.0000000000000000     
  -1.1775000000000000          0.0000000000000000     
  -1.1774000000000000          0.0000000000000000     
  -1.1773000000000000          0.0000000000000000     
  -1.1772000000000000          0.0000000000000000     
  -1.1771000000000000          0.0000000000000000     
  -1.1770000000000000          0.0000000000000000     
  -1.1769000000000001          0.0000000000000000     
  -1.1767999999999998          0.0000000000000000     
  -1.1766999999999999          0.0000000000000000     
  -1.1765999999999999          0.0000000000000000     
  -1.1764999999999999          0.0000000000000000     
  -1.1763999999999999          0.0000000000000000     
  -1.1762999999999999          0.0000000000000000     
  -1.1761999999999999          0.0000000000000000     
  -1.1760999999999999          0.0000000000000000     
  -1.1759999999999999          0.0000000000000000     
  -1.1758999999999999          0.0000000000000000     
  -1.1758000000000000          0.0000000000000000     
  -1.1757000000000000          0.0000000000000000     
  -1.1756000000000000          0.0000000000000000     
  -1.1755000000000000          0.0000000000000000     
  -1.1754000000000000          0.0000000000000000     
  -1.1753000000000000          0.0000000000000000     
  -1.1752000000000000          0.0000000000000000     
  -1.1751000000000000          0.0000000000000000     
  -1.1750000000000000          0.0000000000000000     
  -1.1749000000000001          0.0000000000000000     
  -1.1747999999999998          0.0000000000000000     
  -1.1746999999999999          0.0000000000000000     
  -1.1745999999999999          0.0000000000000000     
  -1.1744999999999999          0.0000000000000000     
  -1.1743999999999999          0.0000000000000000     
  -1.1742999999999999          0.0000000000000000     
  -1.1741999999999999          0.0000000000000000     
  -1.1740999999999999          0.0000000000000000     
  -1.1739999999999999          0.0000000000000000     
  -1.1738999999999999          0.0000000000000000     
  -1.1738000000000000          0.0000000000000000     
  -1.1737000000000000          0.0000000000000000     
  -1.1736000000000000          0.0000000000000000     
  -1.1735000000000000          0.0000000000000000     
  -1.1734000000000000          0.0000000000000000     
  -1.1733000000000000          0.0000000000000000     
  -1.1732000000000000          0.0000000000000000     
  -1.1731000000000000          0.0000000000000000     
  -1.1730000000000000          0.0000000000000000     
  -1.1729000000000001          0.0000000000000000     
  -1.1728000000000001          0.0000000000000000     
  -1.1726999999999999          0.0000000000000000     
  -1.1725999999999999          0.0000000000000000     
  -1.1724999999999999          0.0000000000000000     
  -1.1723999999999999          0.0000000000000000     
  -1.1722999999999999          0.0000000000000000     
  -1.1721999999999999          0.0000000000000000     
  -1.1720999999999999          0.0000000000000000     
  -1.1719999999999999          0.0000000000000000     
  -1.1718999999999999          0.0000000000000000     
  -1.1718000000000000          0.0000000000000000     
  -1.1717000000000000          0.0000000000000000     
  -1.1716000000000000          0.0000000000000000     
  -1.1715000000000000          0.0000000000000000     
  -1.1714000000000000          0.0000000000000000     
  -1.1713000000000000          0.0000000000000000     
  -1.1712000000000000          0.0000000000000000     
  -1.1711000000000000          0.0000000000000000     
  -1.1710000000000000          0.0000000000000000     
  -1.1709000000000001          0.0000000000000000     
  -1.1708000000000001          0.0000000000000000     
  -1.1706999999999999          0.0000000000000000     
  -1.1705999999999999          0.0000000000000000     
  -1.1704999999999999          0.0000000000000000     
  -1.1703999999999999          0.0000000000000000     
  -1.1702999999999999          0.0000000000000000     
  -1.1701999999999999          0.0000000000000000     
  -1.1700999999999999          0.0000000000000000     
  -1.1699999999999999          0.0000000000000000     
  -1.1698999999999999          0.0000000000000000     
  -1.1698000000000000          0.0000000000000000     
  -1.1697000000000000          0.0000000000000000     
  -1.1696000000000000          0.0000000000000000     
  -1.1695000000000000          0.0000000000000000     
  -1.1694000000000000          0.0000000000000000     
  -1.1693000000000000          0.0000000000000000     
  -1.1692000000000000          0.0000000000000000     
  -1.1691000000000000          0.0000000000000000     
  -1.1690000000000000          0.0000000000000000     
  -1.1689000000000001          0.0000000000000000     
  -1.1688000000000001          0.0000000000000000     
  -1.1686999999999999          0.0000000000000000     
  -1.1685999999999999          0.0000000000000000     
  -1.1684999999999999          0.0000000000000000     
  -1.1683999999999999          0.0000000000000000     
  -1.1682999999999999          0.0000000000000000     
  -1.1681999999999999          0.0000000000000000     
  -1.1680999999999999          0.0000000000000000     
  -1.1679999999999999          0.0000000000000000     
  -1.1678999999999999          0.0000000000000000     
  -1.1677999999999999          0.0000000000000000     
  -1.1677000000000000          0.0000000000000000     
  -1.1676000000000000          0.0000000000000000     
  -1.1675000000000000          0.0000000000000000     
  -1.1674000000000000          0.0000000000000000     
  -1.1673000000000000          0.0000000000000000     
  -1.1672000000000000          0.0000000000000000     
  -1.1671000000000000          0.0000000000000000     
  -1.1670000000000000          0.0000000000000000     
  -1.1669000000000000          0.0000000000000000     
  -1.1668000000000001          0.0000000000000000     
  -1.1666999999999998          0.0000000000000000     
  -1.1665999999999999          0.0000000000000000     
  -1.1664999999999999          0.0000000000000000     
  -1.1663999999999999          0.0000000000000000     
  -1.1662999999999999          0.0000000000000000     
  -1.1661999999999999          0.0000000000000000     
  -1.1660999999999999          0.0000000000000000     
  -1.1659999999999999          0.0000000000000000     
  -1.1658999999999999          0.0000000000000000     
  -1.1657999999999999          0.0000000000000000     
  -1.1657000000000000          0.0000000000000000     
  -1.1656000000000000          0.0000000000000000     
  -1.1655000000000000          0.0000000000000000     
  -1.1654000000000000          0.0000000000000000     
  -1.1653000000000000          0.0000000000000000     
  -1.1652000000000000          0.0000000000000000     
  -1.1651000000000000          0.0000000000000000     
  -1.1650000000000000          0.0000000000000000     
  -1.1649000000000000          0.0000000000000000     
  -1.1648000000000001          0.0000000000000000     
  -1.1646999999999998          0.0000000000000000     
  -1.1645999999999999          0.0000000000000000     
  -1.1644999999999999          0.0000000000000000     
  -1.1643999999999999          0.0000000000000000     
  -1.1642999999999999          0.0000000000000000     
  -1.1641999999999999          0.0000000000000000     
  -1.1640999999999999          0.0000000000000000     
  -1.1639999999999999         -8.5971893732586708E-029
  -1.1638999999999999         -9.9920934874359513E-029
  -1.1637999999999999         -1.1354013042050062E-028
  -1.1637000000000000         -1.1756977771726634E-028
  -1.1636000000000000         -1.0848033930766863E-028
  -1.1635000000000000         -8.3541761347289970E-029
  -1.1634000000000000          0.0000000000000000     
  -1.1633000000000000          0.0000000000000000     
  -1.1632000000000000          1.7530812226265056E-028
  -1.1631000000000000          3.3796969776785526E-028
  -1.1630000000000000          4.5450237424713122E-028
  -1.1629000000000000          5.4233672047684438E-028
  -1.1628000000000001          6.9658834973095548E-028
  -1.1627000000000001          8.2532954427595075E-028
  -1.1625999999999999          8.1125321120191610E-028
  -1.1624999999999999          6.6080481210548369E-028
  -1.1623999999999999          3.9363607873081908E-028
  -1.1622999999999999          0.0000000000000000     
  -1.1621999999999999         -3.8429534257466529E-028
  -1.1620999999999999         -8.8797205275759832E-028
  -1.1619999999999999         -1.4757729014288797E-027
  -1.1618999999999999         -2.0858418335996524E-027
  -1.1617999999999999         -2.6541157748612889E-027
  -1.1617000000000000         -3.1170910371575087E-027
  -1.1616000000000000         -3.4864451115201150E-027
  -1.1615000000000000         -3.5259239790781312E-027
  -1.1614000000000000         -3.2548173689685509E-027
  -1.1613000000000000         -2.6416571266440423E-027
  -1.1612000000000000         -1.6204352773416382E-027
  -1.1611000000000000         -1.6121121784939743E-028
  -1.1610000000000000          1.7292229709943067E-027
  -1.1609000000000000          3.9983272462311099E-027
  -1.1608000000000001          6.5727020102679841E-027
  -1.1606999999999998          9.2925110629393271E-027
  -1.1605999999999999          1.1948705108803604E-026
  -1.1604999999999999          1.4300730875574983E-026
  -1.1603999999999999          1.6067765436574450E-026
  -1.1602999999999999          1.6882612529349090E-026
  -1.1601999999999999          1.6444951882834890E-026
  -1.1600999999999999          1.4403646408827215E-026
  -1.1599999999999999          1.0487475096977787E-026
  -1.1598999999999999          4.5058906756348108E-027
  -1.1597999999999999         -3.6037300080874200E-027
  -1.1597000000000000         -1.3733948181869286E-026
  -1.1596000000000000         -2.5567408724288669E-026
  -1.1595000000000000         -3.8589205020249909E-026
  -1.1594000000000000         -5.1865373521033948E-026
  -1.1593000000000000         -6.4436143216666941E-026
  -1.1592000000000000         -7.4951474193988367E-026
  -1.1591000000000000         -8.1858752606055191E-026
  -1.1590000000000000         -8.3577415510571428E-026
  -1.1589000000000000         -7.8484911610965542E-026
  -1.1588000000000001         -6.5098866495738277E-026
  -1.1587000000000001         -4.2241640255886926E-026
  -1.1585999999999999         -9.2645843083737344E-027
  -1.1584999999999999          3.3864504436215409E-026
  -1.1583999999999999          8.6250310450541453E-026
  -1.1582999999999999          1.4599103646279231E-025
  -1.1581999999999999          2.1003830823104023E-025
  -1.1580999999999999          2.7399449121663840E-025
  -1.1579999999999999          3.3244669305889643E-025
  -1.1578999999999999          3.7892147186576410E-025
  -1.1577999999999999          4.0605929773340172E-025
  -1.1577000000000000          4.0623260061351746E-025
  -1.1576000000000000          3.7204312246220593E-025
  -1.1575000000000000          2.9688622395811735E-025
  -1.1574000000000000          1.7586968558991047E-025
  -1.1573000000000000          6.5788241563752022E-027
  -1.1572000000000000         -2.1007570516832836E-025
  -1.1571000000000000         -4.6879725761420906E-025
  -1.1570000000000000         -7.5946706042395853E-025
  -1.1569000000000000         -1.0665310691736242E-024
  -1.1568000000000001         -1.3689275851623235E-024
  -1.1566999999999998         -1.6402842980752259E-024
  -1.1565999999999999         -1.8497646351272419E-024
  -1.1564999999999999         -1.9634747930950984E-024
  -1.1563999999999999         -1.9462549456102552E-024
  -1.1562999999999999         -1.7644077158148391E-024
  -1.1561999999999999         -1.3888125992154558E-024
  -1.1560999999999999         -7.9831688228428292E-025
  -1.1559999999999999          1.6340614242911723E-026
  -1.1558999999999999          1.0484976102726587E-024
  -1.1557999999999999          2.2721951139228887E-024
  -1.1556999999999999          3.6392098099976644E-024
  -1.1556000000000000          5.0770863034666332E-024
  -1.1555000000000000          6.4888211298279354E-024
  -1.1554000000000000          7.7541903094040785E-024
  -1.1553000000000000          8.7333883626977213E-024
  -1.1552000000000000          9.2731830031742083E-024
  -1.1551000000000000          9.2155488254387611E-024
  -1.1550000000000000          8.4091767858436533E-024
  -1.1549000000000000          6.7229937006818876E-024
  -1.1548000000000000          4.0616811123451564E-024
  -1.1547000000000001          3.8234828363804417E-025
  -1.1545999999999998         -4.2888545148175351E-024
  -1.1544999999999999         -9.8413245714189071E-024
  -1.1543999999999999         -1.6067318546871642E-023
  -1.1542999999999999         -2.2653605019261444E-023
  -1.1541999999999999         -2.9179276997415874E-023
  -1.1540999999999999         -3.5121397009542112E-023
  -1.1539999999999999         -3.9870087223482933E-023
  -1.1538999999999999         -4.2753506360697808E-023
  -1.1537999999999999         -4.3074421287828957E-023
  -1.1536999999999999         -4.0157462940367706E-023
  -1.1536000000000000         -3.3406012660251781E-023
  -1.1535000000000000         -2.2367595609464514E-023
  -1.1534000000000000         -6.8039663282982983E-024
  -1.1533000000000000          1.3238160418161489E-023
  -1.1532000000000000          3.7360259989206245E-023
  -1.1531000000000000          6.4755584847449977E-023
  -1.1530000000000000          9.4170592416007614E-023
  -1.1529000000000000          1.2388922939154120E-022
  -1.1528000000000000          1.5174976445825549E-022
  -1.1527000000000001          1.7519782813972139E-022
  -1.1525999999999998          1.9138214895833360E-022
  -1.1524999999999999          1.9729488232401855E-022
  -1.1523999999999999          1.8995770597721964E-022
  -1.1522999999999999          1.6665013526752998E-022
  -1.1521999999999999          1.2517229587666507E-022
  -1.1520999999999999          6.4132914846853686E-023
  -1.1519999999999999         -1.6753786884316777E-023
  -1.1518999999999999         -1.1638302224085878E-022
  -1.1517999999999999         -2.3200954580627233E-022
  -1.1516999999999999         -3.5905517807355832E-022
  -1.1516000000000000         -4.9100974660362811E-022
  -1.1515000000000000         -6.1944306724473201E-022
  -1.1514000000000000         -7.3416651546762303E-022
  -1.1513000000000000         -8.2355144849222755E-022
  -1.1512000000000000         -8.7503198105242247E-022
  -1.1511000000000000         -8.7578868167625943E-022
  -1.1510000000000000         -8.1361043793479858E-022
  -1.1509000000000000         -6.7791252877195059E-022
  -1.1508000000000000         -4.6087112008215486E-022
  -1.1507000000000001         -1.5862517318557422E-022
  -1.1505999999999998          2.2752775563556036E-022
  -1.1504999999999999          6.9002630207607341E-022
  -1.1503999999999999          1.2141391766176719E-021
  -1.1502999999999999          1.7773336592862104E-021
  -1.1501999999999999          2.3490893401256377E-021
  -1.1500999999999999          2.8911852645674972E-021
  -1.1499999999999999          3.3586273309328789E-021
  -1.1498999999999999          3.7012329794623769E-021
  -1.1497999999999999          3.8659566280469358E-021
  -1.1496999999999999          3.7999142532908893E-021
  -1.1496000000000000          3.4540917688294193E-021
  -1.1495000000000000          2.7876214844719695E-021
  -1.1494000000000000          1.7724202549152594E-021
  -1.1493000000000000          3.9802117074622918E-022
  -1.1492000000000000         -1.3237509071489266E-021
  -1.1491000000000000         -3.3545984605177341E-021
  -1.1490000000000000         -5.6264130563389369E-021
  -1.1489000000000000         -8.0393150590274575E-021
  -1.1488000000000000         -1.0461283736711384E-020
  -1.1487000000000001         -1.2730037400759035E-020
  -1.1486000000000001         -1.4657238173243311E-020
  -1.1484999999999999         -1.6035466476598706E-020
  -1.1483999999999999         -1.6647914556424662E-020
  -1.1482999999999999         -1.6280864468714193E-020
  -1.1481999999999999         -1.4738702538882713E-020
  -1.1480999999999999         -1.1860880603293209E-020
  -1.1479999999999999         -7.5402367673545820E-021
  -1.1478999999999999         -1.7417715572433575E-021
  -1.1477999999999999          5.4793178867658474E-021
  -1.1476999999999999          1.3961858774660378E-020
  -1.1476000000000000          2.3426296169191598E-020
  -1.1475000000000000          3.3467491708173951E-020
  -1.1474000000000000          4.3554325968101638E-020
  -1.1473000000000000          5.3037305456168543E-020
  -1.1472000000000000          6.1165482654321497E-020
  -1.1471000000000000          6.7113576880476930E-020
  -1.1470000000000000          7.0019682092225926E-020
  -1.1469000000000000          6.9033004255466482E-020
  -1.1468000000000000          6.3371185607088288E-020
  -1.1467000000000001          5.2384882903888682E-020
  -1.1465999999999998          3.5627589867325221E-020
  -1.1464999999999999          1.2926487141685410E-020
  -1.1463999999999999         -1.5548636758781437E-020
  -1.1462999999999999         -4.9225311457877539E-020
  -1.1461999999999999         -8.7079829861734631E-020
  -1.1460999999999999         -1.2760872658355223E-019
  -1.1459999999999999         -1.6882380193522525E-019
  -1.1458999999999999         -2.0827629757321554E-019
  -1.1457999999999999         -2.4311665383546036E-019
  -1.1456999999999999         -2.7018867262188414E-019
  -1.1456000000000000         -2.8616439953303290E-019