  -1.2000000000000000          0.0000000000000000     
  -1.1999000000000000          0.0000000000000000     
  -1.1998000000000000          0.0000000000000000     
  -1.1997000000000000          0.0000000000000000     
  -1.1996000000000000          0.0000000000000000     
  -1.1995000000000000          0.0000000000000000     
  -1.1994000000000000          0.0000000000000000     
  -1.1993000000000000          0.0000000000000000     
  -1.1992000000000000          0.0000000000000000     
  -1.1991000000000001          0.0000000000000000     
  -1.1990000000000001          0.0000000000000000     
  -1.1988999999999999          0.0000000000000000     
  -1.1987999999999999          0.0000000000000000     
  -1.1986999999999999          0.0000000000000000     
  -1.1985999999999999          0.0000000000000000     
  -1.1984999999999999          0.0000000000000000     
  -1.1983999999999999          0.0000000000000000     
  -1.1982999999999999          0.0000000000000000     
  -1.1981999999999999          0.0000000000000000     
  -1.1980999999999999          0.0000000000000000     
  -1.1980000000000000          0.0000000000000000     
  -1.1979000000000000          0.0000000000000000     
  -1.1978000000000000          0.0000000000000000     
  -1.1977000000000000          0.0000000000000000     
  -1.1976000000000000          0.0000000000000000     
  -1.1975000000000000          0.0000000000000000     
  -1.1974000000000000          0.0000000000000000     
  -1.1973000000000000          0.0000000000000000     
  -1.1972000000000000          0.0000000000000000     
  -1.1971000000000001          0.0000000000000000     
  -1.1970000000000001          0.0000000000000000     
  -1.1968999999999999          0.0000000000000000     
  -1.1967999999999999          0.0000000000000000     
  -1.1966999999999999          0.0000000000000000     
  -1.1965999999999999          0.0000000000000000     
  -1.1964999999999999          0.0000000000000000     
  -1.1963999999999999          0.0000000000000000     
  -1.1962999999999999          0.0000000000000000     
  -1.1961999999999999          0.0000000000000000     
  -1.1960999999999999          0.0000000000000000     
  -1.1960000000000000          0.0000000000000000     
  -1.1959000000000000          0.0000000000000000     
  -1.1958000000000000          0.0000000000000000     
  -1.1957000000000000          0.0000000000000000     
  -1.1956000000000000          0.0000000000000000     
  -1.1955000000000000          0.0000000000000000     
  -1.1954000000000000          0.0000000000000000     
  -1.1953000000000000          0.0000000000000000     
  -1.1952000000000000          0.0000000000000000     
  -1.1951000000000001          0.0000000000000000     
  -1.1950000000000001          0.0000000000000000     
  -1.1948999999999999          0.0000000000000000     
  -1.1947999999999999          0.0000000000000000     
  -1.1946999999999999          0.0000000000000000     
  -1.1945999999999999          0.0000000000000000     
  -1.1944999999999999          0.0000000000000000     
  -1.1943999999999999          0.0000000000000000     
  -1.1942999999999999          0.0000000000000000     
  -1.1941999999999999          0.0000000000000000     
  -1.1940999999999999          0.0000000000000000     
  -1.1940000000000000          0.0000000000000000     
  -1.1939000000000000          0.0000000000000000     
  -1.1938000000000000          0.0000000000000000     
  -1.1937000000000000          0.0000000000000000     
  -1.1936000000000000          0.0000000000000000     
  -1.1935000000000000          0.0000000000000000     
  -1.1934000000000000          0.0000000000000000     
  -1.1933000000000000          0.0000000000000000     
  -1.1932000000000000          0.0000000000000000     
  -1.1931000000000000          0.0000000000000000     
  -1.1930000000000001          0.0000000000000000     
  -1.1928999999999998          0.0000000000000000     
  -1.1927999999999999          0.0000000000000000     
  -1.1926999999999999          0.0000000000000000     
  -1.1925999999999999          0.0000000000000000     
  -1.1924999999999999          0.0000000000000000     
  -1.1923999999999999          0.0000000000000000     
  -1.1922999999999999          0.0000000000000000     
  -1.1921999999999999          0.0000000000000000     
  -1.1920999999999999          0.0000000000000000     
  -1.1919999999999999          0.0000000000000000     
  -1.1919000000000000          0.0000000000000000     
  -1.1918000000000000          0.0000000000000000     
  -1.1917000000000000          0.0000000000000000     
  -1.1916000000000000          0.0000000000000000     
  -1.1915000000000000          0.0000000000000000     
  -1.1914000000000000          0.0000000000000000     
  -1.1913000000000000          0.0000000000000000     
  -1.1912000000000000          0.0000000000000000     
  -1.1911000000000000          0.0000000000000000     
  -1.1910000000000001          0.0000000000000000     
  -1.1908999999999998          0.0000000000000000     
  -1.1907999999999999          0.0000000000000000     
  -1.1906999999999999          0.0000000000000000     
  -1.1905999999999999          0.0000000000000000     
  -1.1904999999999999          0.0000000000000000     
  -1.1903999999999999          0.0000000000000000     
  -1.1902999999999999          0.0000000000000000     
  -1.1901999999999999          0.0000000000000000     
  -1.1900999999999999          0.0000000000000000     
  -1.1899999999999999          0.0000000000000000     
  -1.1899000000000000          0.0000000000000000     
  -1.1898000000000000          0.0000000000000000     
  -1.1897000000000000          0.0000000000000000     
  -1.1896000000000000          0.0000000000000000     
  -1.1895000000000000          0.0000000000000000     
  -1.1894000000000000          0.0000000000000000     
  -1.1893000000000000          0.0000000000000000     
  -1.1892000000000000          0.0000000000000000     
  -1.1891000000000000          0.0000000000000000     
  -1.1890000000000001          0.0000000000000000     
  -1.1888999999999998          0.0000000000000000     
  -1.1887999999999999          0.0000000000000000     
  -1.1886999999999999          0.0000000000000000     
  -1.1885999999999999          0.0000000000000000     
  -1.1884999999999999          0.0000000000000000     
  -1.1883999999999999          0.0000000000000000     
  -1.1882999999999999          0.0000000000000000     
  -1.1881999999999999          0.0000000000000000     
  -1.1880999999999999          0.0000000000000000     
  -1.1879999999999999          0.0000000000000000     
  -1.1879000000000000          0.0000000000000000     
  -1.1878000000000000          0.0000000000000000     
  -1.1877000000000000          0.0000000000000000     
  -1.1876000000000000          0.0000000000000000     
  -1.1875000000000000          0.0000000000000000     
  -1.1874000000000000          0.0000000000000000     
  -1.1873000000000000          0.0000000000000000     
  -1.1872000000000000          0.0000000000000000     
  -1.1871000000000000          0.0000000000000000     
  -1.1870000000000001          0.0000000000000000     
  -1.1869000000000001          0.0000000000000000     
  -1.1867999999999999          0.0000000000000000     
  -1.1866999999999999          0.0000000000000000     
  -1.1865999999999999          0.0000000000000000     
  -1.1864999999999999          0.0000000000000000     
  -1.1863999999999999          0.0000000000000000     
  -1.1862999999999999          0.0000000000000000     
  -1.1861999999999999          0.0000000000000000     
  -1.1860999999999999          0.0000000000000000     
  -1.1859999999999999          0.0000000000000000     
  -1.1859000000000000          0.0000000000000000     
  -1.1858000000000000          0.0000000000000000     
  -1.1857000000000000          0.0000000000000000     
  -1.1856000000000000          0.0000000000000000     
  -1.1855000000000000          0.0000000000000000     
  -1.1854000000000000          0.0000000000000000     
  -1.1853000000000000          0.0000000000000000     
  -1.1852000000000000          0.0000000000000000     
  -1.1851000000000000          0.0000000000000000     
  -1.1850000000000001          0.0000000000000000     
  -1.1849000000000001          0.0000000000000000     
  -1.1847999999999999          0.0000000000000000     
  -1.1846999999999999          0.0000000000000000     
  -1.1845999999999999          0.0000000000000000     
  -1.1844999999999999          0.0000000000000000     
  -1.1843999999999999          0.0000000000000000     
  -1.1842999999999999          0.0000000000000000     
  -1.1841999999999999          0.0000000000000000     
  -1.1840999999999999          0.0000000000000000     
  -1.1839999999999999          0.0000000000000000     
  -1.1839000000000000          0.0000000000000000     
  -1.1838000000000000          0.0000000000000000     
  -1.1837000000000000          0.0000000000000000     
  -1.1836000000000000          0.0000000000000000     
  -1.1835000000000000          0.0000000000000000     
  -1.1834000000000000          0.0000000000000000     
  -1.1833000000000000          0.0000000000000000     
  -1.1832000000000000          0.0000000000000000     
  -1.1831000000000000          0.0000000000000000     
  -1.1830000000000001          0.0000000000000000     
  -1.1829000000000001          0.0000000000000000     
  -1.1827999999999999          0.0000000000000000     
  -1.1826999999999999          0.0000000000000000     
  -1.1825999999999999          0.0000000000000000     
  -1.1824999999999999          0.0000000000000000     
  -1.1823999999999999          0.0000000000000000     
  -1.1822999999999999          0.0000000000000000     
  -1.1821999999999999          0.0000000000000000     
  -1.1820999999999999          0.0000000000000000     
  -1.1819999999999999          0.0000000000000000     
  -1.1819000000000000          0.0000000000000000     
  -1.1818000000000000          0.0000000000000000     
  -1.1817000000000000          0.0000000000000000     
  -1.1816000000000000          0.0000000000000000     
  -1.1815000000000000          0.0000000000000000     
  -1.1814000000000000          0.0000000000000000     
  -1.1813000000000000          0.0000000000000000     
  -1.1812000000000000          0.0000000000000000     
  -1.1811000000000000          0.0000000000000000     
  -1.1810000000000000          0.0000000000000000     
  -1.1809000000000001          0.0000000000000000     
  -1.1807999999999998          0.0000000000000000     
  -1.1806999999999999          0.0000000000000000     
  -1.1805999999999999          0.0000000000000000     
  -1.1804999999999999          0.0000000000000000     
  -1.1803999999999999          0.0000000000000000     
  -1.1802999999999999          0.0000000000000000     
  -1.1801999999999999          0.0000000000000000     
  -1.1800999999999999          0.0000000000000000     
  -1.1799999999999999          0.0000000000000000     
  -1.1798999999999999          0.0000000000000000     
  -1.1798000000000000          0.0000000000000000     
  -1.1797000000000000          0.0000000000000000     
  -1.1796000000000000          0.0000000000000000     
  -1.1795000000000000          0.0000000000000000     
  -1.1794000000000000          0.0000000000000000     
  -1.1793000000000000          0.0000000000000000     
  -1.1792000000000000          0.0000000000000000     
  -1.1791000000000000          0.0000000000000000     
  -1.1790000000000000          0.0000000000000000     
  -1.1789000000000001          0.0000000000000000     
  -1.1787999999999998          0.0000000000000000     
  -1.1786999999999999          0.0000000000000000     
  -1.1785999999999999          0.0000000000000000     
  -1.1784999999999999          0.0000000000000000     
  -1.1783999999999999          0.0000000000000000     
  -1.1782999999999999          0.0000000000000000     
  -1.1781999999999999          0.0000000000000000     
  -1.1780999999999999          0.0000000000000000     
  -1.1779999999999999          0.0000000000000000     
  -1.1778999999999999          0.0000000000000000     
  -1.1778000000000000          0.0000000000000000     
  -1.1777000000000000          0.0000000000000000     
  -1.1776000000000000          0.0000000000000000     
  -1.1775000000000000          0.0000000000000000     
  -1.1774000000000000          0.0000000000000000     
  -1.1773000000000000          0.0000000000000000     
  -1.1772000000000000          0.0000000000000000     
  -1.1771000000000000          0.0000000000000000     
  -1.1770000000000000          0.0000000000000000     
  -1.1769000000000001          0.0000000000000000     
  -1.1767999999999998          0.0000000000000000     
  -1.1766999999999999          0.0000000000000000     
  -1.1765999999999999          0.0000000000000000     
  -1.1764999999999999          0.0000000000000000     
  -1.1763999999999999          0.0000000000000000     
  -1.1762999999999999          0.0000000000000000     
  -1.1761999999999999          0.0000000000000000     
  -1.1760999999999999          0.0000000000000000     
  -1.1759999999999999          0.0000000000000000     
  -1.1758999999999999          0.0000000000000000     
  -1.1758000000000000          0.0000000000000000     
  -1.1757000000000000          0.0000000000000000     
  -1.1756000000000000          0.0000000000000000     
  -1.1755000000000000          0.0000000000000000     
  -1.1754000000000000          0.0000000000000000     
  -1.1753000000000000          0.0000000000000000     
  -1.1752000000000000          0.0000000000000000     
  -1.1751000000000000          0.0000000000000000     
  -1.1750000000000000          0.0000000000000000     
  -1.1749000000000001          0.0000000000000000     
  -1.1747999999999998          0.0000000000000000     
  -1.1746999999999999          0.0000000000000000     
  -1.1745999999999999          0.0000000000000000     
  -1.1744999999999999          0.0000000000000000     
  -1.1743999999999999          0.0000000000000000     
  -1.1742999999999999          0.0000000000000000     
  -1.1741999999999999          0.0000000000000000     
  -1.1740999999999999          0.0000000000000000     
  -1.1739999999999999          0.0000000000000000     
  -1.1738999999999999          0.0000000000000000     
  -1.1738000000000000          0.0000000000000000     
  -1.1737000000000000          0.0000000000000000     
  -1.1736000000000000          0.0000000000000000     
  -1.1735000000000000          0.0000000000000000     
  -1.1734000000000000          0.0000000000000000     
  -1.1733000000000000          0.0000000000000000     
  -1.1732000000000000          0.0000000000000000     
  -1.1731000000000000          0.0000000000000000     
  -1.1730000000000000          0.0000000000000000     
  -1.1729000000000001          0.0000000000000000     
  -1.1728000000000001          0.0000000000000000     
  -1.1726999999999999          0.0000000000000000     
  -1.1725999999999999          0.0000000000000000     
  -1.1724999999999999          0.0000000000000000     
  -1.1723999999999999          0.0000000000000000     
  -1.1722999999999999          0.0000000000000000     
  -1.1721999999999999          0.0000000000000000     
  -1.1720999999999999          0.0000000000000000     
  -1.1719999999999999          0.0000000000000000     
  -1.1718999999999999          0.0000000000000000     
  -1.1718000000000000          0.0000000000000000     
  -1.1717000000000000          0.0000000000000000     
  -1.1716000000000000          0.0000000000000000     
  -1.1715000000000000          0.0000000000000000     
  -1.1714000000000000          0.0000000000000000     
  -1.1713000000000000          0.0000000000000000     
  -1.1712000000000000          0.0000000000000000     
  -1.1711000000000000          0.0000000000000000     
  -1.1710000000000000          0.0000000000000000     
  -1.1709000000000001          0.0000000000000000     
  -1.1708000000000001          0.0000000000000000     
  -1.1706999999999999          0.0000000000000000     
  -1.1705999999999999          0.0000000000000000     
  -1.1704999999999999          0.0000000000000000     
  -1.1703999999999999          0.0000000000000000     
  -1.1702999999999999          0.0000000000000000     
  -1.1701999999999999          0.0000000000000000     
  -1.1700999999999999          0.0000000000000000     
  -1.1699999999999999          0.0000000000000000     
  -1.1698999999999999          0.0000000000000000     
  -1.1698000000000000          0.0000000000000000     
  -1.1697000000000000          0.0000000000000000     
  -1.1696000000000000          0.0000000000000000     
  -1.1695000000000000          0.0000000000000000     
  -1.1694000000000000          0.0000000000000000     
  -1.1693000000000000          0.0000000000000000     
  -1.1692000000000000          0.0000000000000000     
  -1.1691000000000000          0.0000000000000000     
  -1.1690000000000000          0.0000000000000000     
  -1.1689000000000001          0.0000000000000000     
  -1.1688000000000001          0.0000000000000000     
  -1.1686999999999999          0.0000000000000000     
  -1.1685999999999999          0.0000000000000000     
  -1.1684999999999999          0.0000000000000000     
  -1.1683999999999999          0.0000000000000000     
  -1.1682999999999999          0.0000000000000000     
  -1.1681999999999999          0.0000000000000000     
  -1.1680999999999999          0.0000000000000000     
  -1.1679999999999999          0.0000000000000000     
  -1.1678999999999999          0.0000000000000000     
  -1.1677999999999999          0.0000000000000000     
  -1.1677000000000000          0.0000000000000000     
  -1.1676000000000000          0.0000000000000000     
  -1.1675000000000000          0.0000000000000000     
  -1.1674000000000000          0.0000000000000000     
  -1.1673000000000000          0.0000000000000000     
  -1.1672000000000000          0.0000000000000000     
  -1.1671000000000000          0.0000000000000000     
  -1.1670000000000000          0.0000000000000000     
  -1.1669000000000000          0.0000000000000000     
  -1.1668000000000001          0.0000000000000000     
  -1.1666999999999998          0.0000000000000000     
  -1.1665999999999999          0.0000000000000000     
  -1.1664999999999999          0.0000000000000000     
  -1.1663999999999999          0.0000000000000000     
  -1.1662999999999999          0.0000000000000000     
  -1.1661999999999999          0.0000000000000000     
  -1.1660999999999999          0.0000000000000000     
  -1.1659999999999999          0.0000000000000000     
  -1.1658999999999999          0.0000000000000000     
  -1.1657999999999999          0.0000000000000000     
  -1.1657000000000000          0.0000000000000000     
  -1.1656000000000000          0.0000000000000000     
  -1.1655000000000000          0.0000000000000000     
  -1.1654000000000000          0.0000000000000000     
  -1.1653000000000000          0.0000000000000000     
  -1.1652000000000000          0.0000000000000000     
  -1.1651000000000000          0.0000000000000000     
  -1.1650000000000000          0.0000000000000000     
  -1.1649000000000000          0.0000000000000000     
  -1.1648000000000001          0.0000000000000000     
  -1.1646999999999998          0.0000000000000000     
  -1.1645999999999999          0.0000000000000000     
  -1.1644999999999999          0.0000000000000000     
  -1.1643999999999999          0.0000000000000000     
  -1.1642999999999999          0.0000000000000000     
  -1.1641999999999999          0.0000000000000000     
  -1.1640999999999999          0.0000000000000000     
  -1.1639999999999999         -7.8714183218971391E-029
  -1.1638999999999999         -9.8395887247896480E-029
  -1.1637999999999999         -1.1214155620607307E-028
  -1.1637000000000000         -1.1637818078654965E-028
  -1.1636000000000000         -1.0756857999787141E-028
  -1.1635000000000000         -8.2968568484653871E-029
  -1.1634000000000000          0.0000000000000000     
  -1.1633000000000000          0.0000000000000000     
  -1.1632000000000000          1.7261415553056600E-028
  -1.1631000000000000          3.3255436795022723E-028
  -1.1630000000000000          4.5082818139572648E-028
  -1.1629000000000000          5.3913356194158814E-028
  -1.1628000000000001          6.9336386152156515E-028
  -1.1627000000000001          8.2217535250953055E-028
  -1.1625999999999999          8.0571288853089734E-028
  -1.1624999999999999          6.5628301748555412E-028
  -1.1623999999999999          4.1947240486064955E-028
  -1.1622999999999999          0.0000000000000000     
  -1.1621999999999999         -3.8578793828156540E-028
  -1.1620999999999999         -8.8997925694563870E-028
  -1.1619999999999999         -1.4772934231199734E-027
  -1.1618999999999999         -2.0894816486015499E-027
  -1.1617999999999999         -2.6579789977367352E-027
  -1.1617000000000000         -3.1209176673640117E-027
  -1.1616000000000000         -3.4913238772552368E-027
  -1.1615000000000000         -3.5258188233031677E-027
  -1.1614000000000000         -3.2561054309153571E-027
  -1.1613000000000000         -2.6421158831567953E-027
  -1.1612000000000000         -1.6197095869385931E-027
  -1.1611000000000000         -1.5929825182094835E-028
  -1.1610000000000000          1.7322191402087899E-027
  -1.1609000000000000          4.0021155504317196E-027
  -1.1608000000000001          6.5770877379373427E-027
  -1.1606999999999998          9.2971071021586128E-027
  -1.1605999999999999          1.1952982214024099E-026
  -1.1604999999999999          1.4304322349735276E-026
  -1.1603999999999999          1.6070346182699929E-026
  -1.1602999999999999          1.6890354767725527E-026
  -1.1601999999999999          1.6444096769939582E-026
  -1.1600999999999999          1.4400789869533700E-026
  -1.1599999999999999          1.0482867502178835E-026
  -1.1598999999999999          4.4999060409256219E-027
  -1.1597999999999999         -3.6106483336336479E-027
  -1.1597000000000000         -1.3741134211677783E-026
  -1.1596000000000000         -2.5574238842243444E-026
  -1.1595000000000000         -3.8591020016629499E-026
  -1.1594000000000000         -5.1869669115181909E-026
  -1.1593000000000000         -6.4438589918068290E-026
  -1.1592000000000000         -7.4951751527900359E-026
  -1.1591000000000000         -8.1856835920574536E-026
  -1.1590000000000000         -8.3573384924383814E-026
  -1.1589000000000000         -7.8479025969055494E-026
  -1.1588000000000001         -6.5091551043437517E-026
  -1.1587000000000001         -4.2233551350120500E-026
  -1.1585999999999999         -9.2563151355645134E-027
  -1.1584999999999999          3.3872149607722648E-026
  -1.1583999999999999          8.6256701456468908E-026
  -1.1582999999999999          1.4599572032441706E-025
  -1.1581999999999999          2.1004065016185260E-025
  -1.1580999999999999          2.7399434330521867E-025
  -1.1579999999999999          3.3244415391285775E-025
  -1.1578999999999999          3.7891604844704070E-025
  -1.1577999999999999          4.0605251845999748E-025
  -1.1577000000000000          4.0622444083352908E-025
  -1.1576000000000000          3.7203400125798931E-025
  -1.1575000000000000          2.9687742322864348E-025
  -1.1574000000000000          1.7586162441753525E-025
  -1.1573000000000000          6.5718607640682757E-027
  -1.1572000000000000         -2.1008024111853338E-025
  -1.1571000000000000         -4.6879967350073130E-025
  -1.1570000000000000         -7.5946735624679799E-025
  -1.1569000000000000         -1.0665283081604560E-024
  -1.1568000000000001         -1.3689230492121185E-024
  -1.1566999999999998         -1.6402776913651446E-024
  -1.1565999999999999         -1.8497571409486423E-024
  -1.1564999999999999         -1.9634665100555936E-024
  -1.1563999999999999         -1.9462470570012030E-024
  -1.1562999999999999         -1.7644017993580499E-024
  -1.1561999999999999         -1.3888070771891193E-024
  -1.1560999999999999         -7.9831200120743187E-025
  -1.1559999999999999          1.6342191964722165E-026
  -1.1558999999999999          1.0484983991335640E-024
  -1.1557999999999999          2.2721935362010783E-024
  -1.1556999999999999          3.6392034991104227E-024
  -1.1556000000000000          5.0770799925793914E-024
  -1.1555000000000000          6.4888128467884306E-024
  -1.1554000000000000          7.7541824207950263E-024
  -1.1553000000000000          8.7333859961150056E-024
  -1.1552000000000000          9.2731822143133030E-024
  -1.1551000000000000          9.2155456699951402E-024
  -1.1550000000000000          8.4091775747045585E-024
  -1.1549000000000000          6.7229873897946458E-024
  -1.1548000000000000          4.0616811123451564E-024
  -1.1547000000000001          3.8233829961721247E-025
  -1.1545999999999998         -4.2888434707648620E-024
  -1.1544999999999999         -9.8413316711670540E-024
  -1.1543999999999999         -1.6067313813706211E-023
  -1.1542999999999999         -2.2653617641035928E-023
  -1.1541999999999999         -2.9179289619190357E-023
  -1.1540999999999999         -3.5121400164985733E-023
  -1.1539999999999999         -3.9870080912595691E-023
  -1.1538999999999999         -4.2753493738923325E-023
  -1.1537999999999999         -4.3074418132385337E-023
  -1.1536999999999999         -4.0157440852262359E-023
  -1.1536000000000000         -3.3405987416702813E-023
  -1.1535000000000000         -2.2367605075795377E-023
  -1.1534000000000000         -6.8038882310686814E-024
  -1.1533000000000000          1.3238239304252011E-023
  -1.1532000000000000          3.7360373585176597E-023
  -1.1531000000000000          6.4755591158337219E-023
  -1.1530000000000000          9.4170522996247955E-023
  -1.1529000000000000          1.2388916628266878E-022
  -1.1528000000000000          1.5174975183648100E-022
  -1.1527000000000001          1.7519775240907449E-022
  -1.1525999999999998          1.9138211109301015E-022
  -1.1524999999999999          1.9729473086272475E-022
  -1.1523999999999999          1.8995759238124929E-022
  -1.1522999999999999          1.6664993331913824E-022
  -1.1521999999999999          1.2517203081940092E-022
  -1.1520999999999999          6.4132719209349191E-023
  -1.1519999999999999         -1.6753608601752197E-023
  -1.1518999999999999         -1.1638316108037810E-022
  -1.1517999999999999         -2.3200949531917439E-022
  -1.1516999999999999         -3.5905527904775419E-022
  -1.1516000000000000         -4.9100954465523638E-022
  -1.1515000000000000         -6.1944301675763408E-022
  -1.1514000000000000         -7.3416626303213336E-022
  -1.1513000000000000         -8.2355084264705234E-022
  -1.1512000000000000         -8.7503137520724726E-022
  -1.1511000000000000         -8.7578827777947596E-022
  -1.1510000000000000         -8.1361028647350477E-022
  -1.1509000000000000         -6.7791202390097125E-022
  -1.1508000000000000         -4.6087005985309824E-022
  -1.1507000000000001         -1.5862465569282040E-022
  -1.1505999999999998          2.2752813428879487E-022
  -1.1504999999999999          6.9002690792124862E-022
  -1.1503999999999999          1.2141383688241049E-021
  -1.1502999999999999          1.7773332553894269E-021
  -1.1501999999999999          2.3490889362288543E-021
  -1.1500999999999999          2.8911848606707137E-021
  -1.1499999999999999          3.3586259172941367E-021
  -1.1498999999999999          3.7012305560816761E-021
  -1.1497999999999999          3.8659542046662350E-021
  -1.1496999999999999          3.7999114260134050E-021
  -1.1496000000000000          3.4540905571390689E-021
  -1.1495000000000000          2.7876184552460934E-021
  -1.1494000000000000          1.7724186393281256E-021
  -1.1493000000000000          3.9802048917040707E-022
  -1.1492000000000000         -1.3237545422199779E-021
  -1.1491000000000000         -3.3545974507757755E-021
  -1.1490000000000000         -5.6264207303778229E-021
  -1.1489000000000000         -8.0393134434403236E-021
  -1.1488000000000000         -1.0461284544504951E-020
  -1.1487000000000001         -1.2730034977378334E-020
  -1.1486000000000001         -1.4657234942069043E-020
  -1.1484999999999999         -1.6035460014250170E-020
  -1.1483999999999999         -1.6647904862901858E-020
  -1.1482999999999999         -1.6280858006365657E-020
  -1.1481999999999999         -1.4738697692121312E-020
  -1.1480999999999999         -1.1860863639628303E-020
  -1.1479999999999999         -7.5402399985288498E-021
  -1.1478999999999999         -1.7417711533465741E-021
  -1.1477999999999999          5.4793348504307533E-021
  -1.1476999999999999          1.3961892701990190E-020
  -1.1476000000000000          2.3426294553604464E-020
  -1.1475000000000000          3.3467482014651148E-020
  -1.1474000000000000          4.3554332430450174E-020
  -1.1473000000000000          5.3037286069122937E-020
  -1.1472000000000000          6.1165450342578819E-020
  -1.1471000000000000          6.7113538106385717E-020
  -1.1470000000000000          7.0019611006392034E-020
  -1.1469000000000000          6.9032946094329662E-020
  -1.1468000000000000          6.3371133908300003E-020
  -1.1467000000000001          5.2384853823320272E-020
  -1.1465999999999998          3.5627560786756811E-020
  -1.1464999999999999          1.2926507336524584E-020
  -1.1463999999999999         -1.5548664223762713E-020
  -1.1462999999999999         -4.9225324382574610E-020
  -1.1461999999999999         -8.7079855711128774E-020
  -1.1460999999999999         -1.2760872658355223E-019
  -1.1459999999999999         -1.6882365976355746E-019
  -1.1458999999999999         -2.0827624587442726E-019
  -1.1457999999999999         -2.4311652458848965E-019
  -1.1456999999999999         -2.7018851752551928E-019
  -1.1456000000000000         -2.8616419273787976E-019