  -1.2000000000000000          0.0000000000000000     
  -1.1999000000000000          0.0000000000000000     
  -1.1998000000000000          0.0000000000000000     
  -1.1997000000000000          0.0000000000000000     
  -1.1996000000000000          0.0000000000000000     
  -1.1995000000000000          0.0000000000000000     
  -1.1994000000000000          0.0000000000000000     
  -1.1993000000000000          0.0000000000000000     
  -1.1992000000000000          0.0000000000000000     
  -1.1991000000000001          0.0000000000000000     
  -1.1990000000000001          0.0000000000000000     
  -1.1988999999999999          0.0000000000000000     
  -1.1987999999999999          0.0000000000000000     
  -1.1986999999999999          0.0000000000000000     
  -1.1985999999999999          0.0000000000000000     
  -1.1984999999999999          0.0000000000000000     
  -1.1983999999999999          0.0000000000000000     
  -1.1982999999999999          0.0000000000000000     
  -1.1981999999999999          0.0000000000000000     
  -1.1980999999999999          0.0000000000000000     
  -1.1980000000000000          0.0000000000000000     
  -1.1979000000000000          0.0000000000000000     
  -1.1978000000000000          0.0000000000000000     
  -1.1977000000000000          0.0000000000000000     
  -1.1976000000000000          0.0000000000000000     
  -1.1975000000000000          0.0000000000000000     
  -1.1974000000000000          0.0000000000000000     
  -1.1973000000000000          0.0000000000000000     
  -1.1972000000000000          0.0000000000000000     
  -1.1971000000000001          0.0000000000000000     
  -1.1970000000000001          0.0000000000000000     
  -1.1968999999999999          0.0000000000000000     
  -1.1967999999999999          0.0000000000000000     
  -1.1966999999999999          0.0000000000000000     
  -1.1965999999999999          0.0000000000000000     
  -1.1964999999999999          0.0000000000000000     
  -1.1963999999999999          0.0000000000000000     
  -1.1962999999999999          0.0000000000000000     
  -1.1961999999999999          0.0000000000000000     
  -1.1960999999999999          0.0000000000000000     
  -1.1960000000000000          0.0000000000000000     
  -1.1959000000000000          0.0000000000000000     
  -1.1958000000000000          0.0000000000000000     
  -1.1957000000000000          0.0000000000000000     
  -1.1956000000000000          0.0000000000000000     
  -1.1955000000000000          0.0000000000000000     
  -1.1954000000000000          0.0000000000000000     
  -1.1953000000000000          0.0000000000000000     
  -1.1952000000000000          0.0000000000000000     
  -1.1951000000000001          0.0000000000000000     
  -1.1950000000000001          0.0000000000000000     
  -1.1948999999999999          0.0000000000000000     
  -1.1947999999999999          0.0000000000000000     
  -1.1946999999999999          0.0000000000000000     
  -1.1945999999999999          0.0000000000000000     
  -1.1944999999999999          0.0000000000000000     
  -1.1943999999999999          0.0000000000000000     
  -1.1942999999999999          0.0000000000000000     
  -1.1941999999999999          0.0000000000000000     
  -1.1940999999999999          0.0000000000000000     
  -1.1940000000000000          0.0000000000000000     
  -1.1939000000000000          0.0000000000000000     
  -1.1938000000000000          0.0000000000000000     
  -1.1937000000000000          0.0000000000000000     
  -1.1936000000000000          0.0000000000000000     
  -1.1935000000000000          0.0000000000000000     
  -1.1934000000000000          0.0000000000000000     
  -1.1933000000000000          0.0000000000000000     
  -1.1932000000000000          0.0000000000000000     
  -1.1931000000000000          0.0000000000000000     
  -1.1930000000000001          0.0000000000000000     
  -1.1928999999999998          0.0000000000000000     
  -1.1927999999999999          0.0000000000000000     
  -1.1926999999999999          0.0000000000000000     
  -1.1925999999999999          0.0000000000000000     
  -1.1924999999999999          0.0000000000000000     
  -1.1923999999999999          0.0000000000000000     
  -1.1922999999999999          0.0000000000000000     
  -1.1921999999999999          0.0000000000000000     
  -1.1920999999999999          0.0000000000000000     
  -1.1919999999999999          0.0000000000000000     
  -1.1919000000000000          0.0000000000000000     
  -1.1918000000000000          0.0000000000000000     
  -1.1917000000000000          0.0000000000000000     
  -1.1916000000000000          0.0000000000000000     
  -1.1915000000000000          0.0000000000000000     
  -1.1914000000000000          0.0000000000000000     
  -1.1913000000000000          0.0000000000000000     
  -1.1912000000000000          0.0000000000000000     
  -1.1911000000000000          0.0000000000000000     
  -1.1910000000000001          0.0000000000000000     
  -1.1908999999999998          0.0000000000000000     
  -1.1907999999999999          0.0000000000000000     
  -1.1906999999999999          0.0000000000000000     
  -1.1905999999999999          0.0000000000000000     
  -1.1904999999999999          0.0000000000000000     
  -1.1903999999999999          0.0000000000000000     
  -1.1902999999999999          0.0000000000000000     
  -1.1901999999999999          0.0000000000000000     
  -1.1900999999999999          0.0000000000000000     
  -1.1899999999999999          0.0000000000000000     
  -1.1899000000000000          0.0000000000000000     
  -1.1898000000000000          0.0000000000000000     
  -1.1897000000000000          0.0000000000000000     
  -1.1896000000000000          0.0000000000000000     
  -1.1895000000000000          0.0000000000000000     
  -1.1894000000000000          0.0000000000000000     
  -1.1893000000000000          0.0000000000000000     
  -1.1892000000000000          0.0000000000000000     
  -1.1891000000000000          0.0000000000000000     
  -1.1890000000000001          0.0000000000000000     
  -1.1888999999999998          0.0000000000000000     
  -1.1887999999999999          0.0000000000000000     
  -1.1886999999999999          0.0000000000000000     
  -1.1885999999999999          0.0000000000000000     
  -1.1884999999999999          0.0000000000000000     
  -1.1883999999999999          0.0000000000000000     
  -1.1882999999999999          0.0000000000000000     
  -1.1881999999999999          0.0000000000000000     
  -1.1880999999999999          0.0000000000000000     
  -1.1879999999999999          0.0000000000000000     
  -1.1879000000000000          0.0000000000000000     
  -1.1878000000000000          0.0000000000000000     
  -1.1877000000000000          0.0000000000000000     
  -1.1876000000000000          0.0000000000000000     
  -1.1875000000000000          0.0000000000000000     
  -1.1874000000000000          0.0000000000000000     
  -1.1873000000000000          0.0000000000000000     
  -1.1872000000000000          0.0000000000000000     
  -1.1871000000000000          0.0000000000000000     
  -1.1870000000000001          0.0000000000000000     
  -1.1869000000000001          0.0000000000000000     
  -1.1867999999999999          0.0000000000000000     
  -1.1866999999999999          0.0000000000000000     
  -1.1865999999999999          0.0000000000000000     
  -1.1864999999999999          0.0000000000000000     
  -1.1863999999999999          0.0000000000000000     
  -1.1862999999999999          0.0000000000000000     
  -1.1861999999999999          0.0000000000000000     
  -1.1860999999999999          0.0000000000000000     
  -1.1859999999999999          0.0000000000000000     
  -1.1859000000000000          0.0000000000000000     
  -1.1858000000000000          0.0000000000000000     
  -1.1857000000000000          0.0000000000000000     
  -1.1856000000000000          0.0000000000000000     
  -1.1855000000000000          0.0000000000000000     
  -1.1854000000000000          0.0000000000000000     
  -1.1853000000000000          0.0000000000000000     
  -1.1852000000000000          0.0000000000000000     
  -1.1851000000000000          0.0000000000000000     
  -1.1850000000000001          0.0000000000000000     
  -1.1849000000000001          0.0000000000000000     
  -1.1847999999999999          0.0000000000000000     
  -1.1846999999999999          0.0000000000000000     
  -1.1845999999999999          0.0000000000000000     
  -1.1844999999999999          0.0000000000000000     
  -1.1843999999999999          0.0000000000000000     
  -1.1842999999999999          0.0000000000000000     
  -1.1841999999999999          0.0000000000000000     
  -1.1840999999999999          0.0000000000000000     
  -1.1839999999999999          0.0000000000000000     
  -1.1839000000000000          0.0000000000000000     
  -1.1838000000000000          0.0000000000000000     
  -1.1837000000000000          0.0000000000000000     
  -1.1836000000000000          0.0000000000000000     
  -1.1835000000000000          0.0000000000000000     
  -1.1834000000000000          0.0000000000000000     
  -1.1833000000000000          0.0000000000000000     
  -1.1832000000000000          0.0000000000000000     
  -1.1831000000000000          0.0000000000000000     
  -1.1830000000000001          0.0000000000000000     
  -1.1829000000000001          0.0000000000000000     
  -1.1827999999999999          0.0000000000000000     
  -1.1826999999999999          0.0000000000000000     
  -1.1825999999999999          0.0000000000000000     
  -1.1824999999999999          0.0000000000000000     
  -1.1823999999999999          0.0000000000000000     
  -1.1822999999999999          0.0000000000000000     
  -1.1821999999999999          0.0000000000000000     
  -1.1820999999999999          0.0000000000000000     
  -1.1819999999999999          0.0000000000000000     
  -1.1819000000000000          0.0000000000000000     
  -1.1818000000000000          0.0000000000000000     
  -1.1817000000000000          0.0000000000000000     
  -1.1816000000000000          0.0000000000000000     
  -1.1815000000000000          0.0000000000000000     
  -1.1814000000000000          0.0000000000000000     
  -1.1813000000000000          0.0000000000000000     
  -1.1812000000000000          0.0000000000000000     
  -1.1811000000000000          0.0000000000000000     
  -1.1810000000000000          0.0000000000000000     
  -1.1809000000000001          0.0000000000000000     
  -1.1807999999999998          0.0000000000000000     
  -1.1806999999999999          0.0000000000000000     
  -1.1805999999999999          0.0000000000000000     
  -1.1804999999999999          0.0000000000000000     
  -1.1803999999999999          0.0000000000000000     
  -1.1802999999999999          0.0000000000000000     
  -1.1801999999999999          0.0000000000000000     
  -1.1800999999999999          0.0000000000000000     
  -1.1799999999999999          0.0000000000000000     
  -1.1798999999999999          0.0000000000000000     
  -1.1798000000000000          0.0000000000000000     
  -1.1797000000000000          0.0000000000000000     
  -1.1796000000000000          0.0000000000000000     
  -1.1795000000000000          0.0000000000000000     
  -1.1794000000000000          0.0000000000000000     
  -1.1793000000000000          0.0000000000000000     
  -1.1792000000000000          0.0000000000000000     
  -1.1791000000000000          0.0000000000000000     
  -1.1790000000000000          0.0000000000000000     
  -1.1789000000000001          0.0000000000000000     
  -1.1787999999999998          0.0000000000000000     
  -1.1786999999999999          0.0000000000000000     
  -1.1785999999999999          0.0000000000000000     
  -1.1784999999999999          0.0000000000000000     
  -1.1783999999999999          0.0000000000000000     
  -1.1782999999999999          0.0000000000000000     
  -1.1781999999999999          0.0000000000000000     
  -1.1780999999999999          0.0000000000000000     
  -1.1779999999999999          0.0000000000000000     
  -1.1778999999999999          0.0000000000000000     
  -1.1778000000000000          0.0000000000000000     
  -1.1777000000000000          0.0000000000000000     
  -1.1776000000000000          0.0000000000000000     
  -1.1775000000000000          0.0000000000000000     
  -1.1774000000000000          0.0000000000000000     
  -1.1773000000000000          0.0000000000000000     
  -1.1772000000000000          0.0000000000000000     
  -1.1771000000000000          0.0000000000000000     
  -1.1770000000000000          0.0000000000000000     
  -1.1769000000000001          0.0000000000000000     
  -1.1767999999999998          0.0000000000000000     
  -1.1766999999999999          0.0000000000000000     
  -1.1765999999999999          0.0000000000000000     
  -1.1764999999999999          0.0000000000000000     
  -1.1763999999999999          0.0000000000000000     
  -1.1762999999999999          0.0000000000000000     
  -1.1761999999999999          0.0000000000000000     
  -1.1760999999999999          0.0000000000000000     
  -1.1759999999999999          0.0000000000000000     
  -1.1758999999999999          0.0000000000000000     
  -1.1758000000000000          0.0000000000000000     
  -1.1757000000000000          0.0000000000000000     
  -1.1756000000000000          0.0000000000000000     
  -1.1755000000000000          0.0000000000000000     
  -1.1754000000000000          0.0000000000000000     
  -1.1753000000000000          0.0000000000000000     
  -1.1752000000000000          0.0000000000000000     
  -1.1751000000000000          0.0000000000000000     
  -1.1750000000000000          0.0000000000000000     
  -1.1749000000000001          0.0000000000000000     
  -1.1747999999999998          0.0000000000000000     
  -1.1746999999999999          0.0000000000000000     
  -1.1745999999999999          0.0000000000000000     
  -1.1744999999999999          0.0000000000000000     
  -1.1743999999999999          0.0000000000000000     
  -1.1742999999999999          0.0000000000000000     
  -1.1741999999999999          0.0000000000000000     
  -1.1740999999999999          0.0000000000000000     
  -1.1739999999999999          0.0000000000000000     
  -1.1738999999999999          0.0000000000000000     
  -1.1738000000000000          0.0000000000000000     
  -1.1737000000000000          0.0000000000000000     
  -1.1736000000000000          7.7677972723580296E-029
  -1.1735000000000000          1.0535896057267593E-028
  -1.1734000000000000          1.2801398747211895E-028
  -1.1733000000000000          1.4515591953513198E-028
  -1.1732000000000000          1.5354241758915266E-028
  -1.1731000000000000          1.4972749944412396E-028
  -1.1730000000000000          1.3021699855019275E-028
  -1.1729000000000001          9.1760902107674471E-029
  -1.1728000000000001         -8.1806402170899851E-029
  -1.1726999999999999         -9.8396922435241588E-029
  -1.1725999999999999         -2.6621400175298325E-028
  -1.1724999999999999         -3.9918241993291405E-028
  -1.1723999999999999         -5.4054950563670164E-028
  -1.1722999999999999         -6.8177929660957871E-028
  -1.1721999999999999         -8.1190196070368294E-028
  -1.1720999999999999         -8.7781980194525267E-028
  -1.1719999999999999         -1.0046424813761466E-027
  -1.1718999999999999         -9.9646575320425614E-028
  -1.1718000000000000         -9.2451801789980441E-028
  -1.1717000000000000         -7.6726054163323954E-028
  -1.1716000000000000         -5.0457178612458700E-028
  -1.1715000000000000         -1.1851193060899842E-028
  -1.1714000000000000          3.8355072990991658E-028
  -1.1713000000000000          1.0054986535329239E-027
  -1.1712000000000000          1.7359419627912904E-027
  -1.1711000000000000          2.5517843761611897E-027
  -1.1710000000000000          3.4177591311694775E-027
  -1.1709000000000001          4.2798569891997139E-027
  -1.1708000000000001          5.0891350629471636E-027
  -1.1706999999999999          5.7648283246359815E-027
  -1.1705999999999999          6.1995842836080562E-027
  -1.1704999999999999          6.3047458363614324E-027
  -1.1703999999999999          5.9877142711699719E-027
  -1.1702999999999999          4.9872741689324782E-027
  -1.1701999999999999          3.5110789110667944E-027
  -1.1700999999999999          1.3643261725984930E-027
  -1.1699999999999999         -1.4922474024696654E-027
  -1.1698999999999999         -5.0586811031085460E-027
  -1.1698000000000000         -9.1565373273776772E-027
  -1.1697000000000000         -1.3989611530126803E-026
  -1.1696000000000000         -1.9207216135200306E-026
  -1.1695000000000000         -2.4544852398127799E-026
  -1.1694000000000000         -2.9496581604006666E-026
  -1.1693000000000000         -3.3844940069468345E-026
  -1.1692000000000000         -3.7028403659927294E-026
  -1.1691000000000000         -3.8518715984285336E-026
  -1.1690000000000000         -3.7702029243227817E-026
  -1.1689000000000001         -3.4022569358611158E-026
  -1.1688000000000001         -2.6930303064270007E-026
  -1.1686999999999999         -1.5974075878127811E-026
  -1.1685999999999999         -8.4975958043451396E-028
  -1.1684999999999999          1.8540126387759054E-026
  -1.1683999999999999          4.2022407798457439E-026
  -1.1682999999999999          6.9092302265096632E-026
  -1.1681999999999999          9.8861435311857158E-026
  -1.1680999999999999          1.2984675151841142E-025
  -1.1679999999999999          1.6061426199643901E-025
  -1.1678999999999999          1.8866685836534190E-025
  -1.1677999999999999          2.1149040394232580E-025
  -1.1677000000000000          2.2610846490223363E-025
  -1.1676000000000000          2.2933165195335353E-025
  -1.1675000000000000          2.1788892870028330E-025
  -1.1674000000000000          1.8863705421426652E-025
  -1.1673000000000000          1.3889218811027322E-025
  -1.1672000000000000          6.6472415080171966E-026
  -1.1671000000000000         -2.9779573127803060E-026
  -1.1670000000000000         -1.4972799383034069E-025
  -1.1669000000000000         -2.9162380681509785E-025
  -1.1668000000000001         -4.5177334345670017E-025
  -1.1666999999999998         -6.2433365894159534E-025
  -1.1665999999999999         -8.0110915406592585E-025
  -1.1664999999999999         -9.7150567339160636E-025
  -1.1663999999999999         -1.1226185864967724E-024
  -1.1662999999999999         -1.2394196000988979E-024
  -1.1661999999999999         -1.3054737833138347E-024
  -1.1660999999999999         -1.3032607326518503E-024
  -1.1659999999999999         -1.2154007576871812E-024
  -1.1658999999999999         -1.0256274479465569E-024
  -1.1657999999999999         -7.2018001240691540E-025
  -1.1657000000000000         -2.8931025034340764E-025
  -1.1656000000000000          2.7095175609758781E-025
  -1.1655000000000000          9.5737017343856421E-025
  -1.1654000000000000          1.7578014001640657E-024
  -1.1653000000000000          2.6496368552937812E-024
  -1.1652000000000000          3.5986540764297996E-024
  -1.1651000000000000          4.5586299560459220E-024
  -1.1650000000000000          5.4711002375191824E-024
  -1.1649000000000000          6.2661556729984422E-024
  -1.1648000000000001          6.8641240720695475E-024
  -1.1646999999999998          7.1780528470240595E-024
  -1.1645999999999999          7.1177018323310313E-024
  -1.1644999999999999          6.5944113452831257E-024
  -1.1643999999999999          5.5268659982006135E-024
  -1.1642999999999999          3.8481644698639639E-024
  -1.1641999999999999          1.5133822164045847E-024
  -1.1640999999999999         -1.4922829482030909E-024
  -1.1639999999999999         -5.1454261125468347E-024
  -1.1638999999999999         -9.3767801615523576E-024
  -1.1637999999999999         -1.4064531659425760E-023
  -1.1637000000000000         -1.9029483357367489E-023
  -1.1636000000000000         -2.4032462884106303E-023
  -1.1635000000000000         -2.8775077291355111E-023
  -1.1634000000000000         -3.2903975269281887E-023
  -1.1633000000000000         -3.6019691854979004E-023
  -1.1632000000000000         -3.7690234194972953E-023
  -1.1631000000000000         -3.7469917965919208E-023
  -1.1630000000000000         -3.4923241461037836E-023
  -1.1629000000000000         -2.9653937759530978E-023
  -1.1628000000000001         -2.1337600435900975E-023
  -1.1627000000000001         -9.7583119495015948E-024
  -1.1625999999999999          5.1536204051998179E-024
  -1.1624999999999999          2.3283772353900955E-023
  -1.1623999999999999          4.4298389469377291E-023
  -1.1622999999999999          6.7614429389745407E-023
  -1.1621999999999999          9.2377379049808177E-023
  -1.1620999999999999          1.1745087484926387E-022
  -1.1619999999999999          1.4142002849028257E-022
  -1.1618999999999999          1.6261275777638332E-022
  -1.1617999999999999          1.7914079475773119E-022
  -1.1617000000000000          1.8896215089305624E-022
  -1.1616000000000000          1.8996751309599335E-022
  -1.1615000000000000          1.8008814728514197E-022
  -1.1614000000000000          1.5742737940886112E-022
  -1.1613000000000000          1.2040828282850124E-022
  -1.1612000000000000          6.7936972525784933E-023
  -1.1611000000000000         -4.2677818706715925E-025
  -1.1610000000000000         -8.4300421567867491E-023
  -1.1609000000000000         -1.8232057315981950E-022
  -1.1608000000000001         -2.9200508084274630E-022
  -1.1606999999999998         -4.0965407968607824E-022
  -1.1605999999999999         -5.3029597893849525E-022
  -1.1604999999999999         -6.4769514237770007E-022
  -1.1603999999999999         -7.5443597457202760E-022
  -1.1602999999999999         -8.4209137108270212E-022
  -1.1601999999999999         -9.0148267653110025E-022
  -1.1600999999999999         -9.2303985955541311E-022
  -1.1599999999999999         -8.9726104637604293E-022
  -1.1598999999999999         -8.1526187090822445E-022
  -1.1597999999999999         -6.6940903735400052E-022
  -1.1597000000000000         -4.5401421487622899E-022
  -1.1596000000000000         -1.6607167934294952E-022
  -1.1595000000000000          1.9401936776247262E-022
  -1.1594000000000000          6.2174285552982817E-022
  -1.1593000000000000          1.1078638354662972E-021
  -1.1592000000000000          1.6379475666450773E-021
  -1.1591000000000000          2.1920686090470872E-021
  -1.1590000000000000          2.7447749019907865E-021
  -1.1589000000000000          3.2653409064412175E-021
  -1.1588000000000001          3.7183569913912884E-021
  -1.1587000000000001          4.0647154468844273E-021
  -1.1585999999999999          4.2629867623042667E-021
  -1.1584999999999999          4.2712020228801107E-021
  -1.1583999999999999          4.0490321347821646E-021
  -1.1582999999999999          3.5603275280960137E-021
  -1.1581999999999999          2.7759238258290199E-021
  -1.1580999999999999          1.6766282567273223E-021
  -1.1579999999999999          2.5631865432123059E-022
  -1.1578999999999999         -1.4751171842330488E-021
  -1.1577999999999999         -3.4890643835167931E-021
  -1.1577000000000000         -5.7359579419525268E-021
  -1.1576000000000000         -8.1436916813997249E-021
  -1.1575000000000000         -1.0617015027308696E-020
  -1.1574000000000000         -1.3037921456452088E-020
  -1.1573000000000000         -1.5267426046668952E-020
  -1.1572000000000000         -1.7148733643234307E-020
  -1.1571000000000000         -1.8512043614995337E-020
  -1.1570000000000000         -1.9180904766362556E-020
  -1.1569000000000000         -1.8980150293517923E-020
  -1.1568000000000001         -1.7745449135550416E-020
  -1.1566999999999998         -1.5333936537797043E-020
  -1.1565999999999999         -1.1635935136499235E-020
  -1.1564999999999999         -6.5870662077520713E-021
  -1.1563999999999999         -1.8047776884167425E-022
  -1.1562999999999999          7.5216954816124632E-021
  -1.1561999999999999          1.6378174512962814E-020
  -1.1560999999999999          2.6160674162130610E-020
  -1.1559999999999999          3.6548703947017034E-020
  -1.1558999999999999          4.7128673561345572E-020
  -1.1557999999999999          5.7396964105803543E-020
  -1.1556999999999999          6.6768855822543991E-020
  -1.1556000000000000          7.4592562700617808E-020
  -1.1555000000000000          8.0169905528939023E-020
  -1.1554000000000000          8.2782852761720398E-020
  -1.1553000000000000          8.1726368636079721E-020
  -1.1552000000000000          7.6346179136881691E-020
  -1.1551000000000000          6.6081552744043388E-020
  -1.1550000000000000          5.0510830909141638E-020
  -1.1549000000000000          2.9398606430896947E-020
  -1.1548000000000000          2.7420243648953343E-021
  -1.1547000000000001         -2.9185332773351781E-020
  -1.1545999999999998         -6.5796634259458619E-020
  -1.1544999999999999         -1.0616269272287691E-019
  -1.1543999999999999         -1.4899487386034842E-019
  -1.1542999999999999         -1.9264301051096667E-019
  -1.1541999999999999         -2.3511076042747174E-019
  -1.1540999999999999         -2.7408983733644321E-019
  -1.1539999999999999         -3.0701801051640686E-019
  -1.1538999999999999         -3.3115687270011174E-019
  -1.1537999999999999         -3.4369483698549011E-019
  -1.1536999999999999         -3.4187072278905169E-019
  -1.1536000000000000         -3.2311721998337330E-019
  -1.1535000000000000         -2.8522066400229232E-019
  -1.1534000000000000         -2.2649122825193949E-019
  -1.1533000000000000         -1.4593841564757084E-019
  -1.1532000000000000         -4.3443981366856771E-020
  -1.1531000000000000          8.0077926922232248E-020
  -1.1530000000000000          2.2254027760426238E-019
  -1.1529000000000000          3.8057651990315095E-019
  -1.1528000000000000          5.4947571159639217E-019
  -1.1527000000000001          7.2316973325847943E-019
  -1.1525999999999998          8.9428222762636526E-019
  -1.1524999999999999          1.0542527542395267E-018
  -1.1523999999999999          1.1935322884078632E-018
  -1.1522999999999999          1.3018616191866094E-018
  -1.1521999999999999          1.3686334993882680E-018
  -1.1520999999999999          1.3833288799581554E-018
  -1.1519999999999999          1.3360252124608151E-018
  -1.1518999999999999          1.2179639983778060E-018
  -1.1517999999999999          1.0221574226894332E-018
  -1.1516999999999999          7.4401902739303163E-019
  -1.1516000000000000          3.8198869815453797E-019
  -1.1515000000000000         -6.1885278421258949E-020
  -1.1514000000000000         -5.8142256422653236E-019
  -1.1513000000000000         -1.1658995962624933E-018
  -1.1512000000000000         -1.7997686166497613E-018
  -1.1511000000000000         -2.4625671415877291E-018
  -1.1510000000000000         -3.1290147737979746E-018
  -1.1509000000000000         -3.7693793333428918E-018
  -1.1508000000000000         -4.3500688087515490E-018
  -1.1507000000000001         -4.8345282275988498E-018
  -1.1505999999999998         -5.1843892307618282E-018
  -1.1504999999999999         -5.3609244627316702E-018
  -1.1503999999999999         -5.3267159949092335E-018
  -1.1502999999999999         -5.0475706623134135E-018
  -1.1501999999999999         -4.4945764345839504E-018
  -1.1500999999999999         -3.6462741786796875E-018
  -1.1499999999999999         -2.4908159798918744E-018
  -1.1498999999999999         -1.0280735218279890E-018
  -1.1497999999999999          7.2842351922032170E-019
  -1.1496999999999999          2.7499487115427397E-018
  -1.1496000000000000          4.9913165903955197E-018
  -1.1495000000000000          7.3902483138692381E-018
  -1.1494000000000000          9.8674011311981148E-018
  -1.1493000000000000          1.2327042534959244E-017
  -1.1492000000000000          1.4658725715403320E-017
  -1.1491000000000000          1.6739703687072374E-017
  -1.1490000000000000          1.8438329001117367E-017
  -1.1489000000000000          1.9618406369681443E-017
  -1.1488000000000000          2.0144369162173286E-017
  -1.1487000000000001          1.9887241723122402E-017
  -1.1486000000000001          1.8731281632497922E-017
  -1.1484999999999999          1.6580972690607124E-017
  -1.1483999999999999          1.3368356219864486E-017
  -1.1482999999999999          9.0602242273984570E-018
  -1.1481999999999999          3.6649510897305223E-018
  -1.1480999999999999         -2.7614808500526477E-018
  -1.1479999999999999         -1.0110531019923376E-017
  -1.1478999999999999         -1.8217357626641176E-017
  -1.1477999999999999         -2.6859590119723725E-017
  -1.1476999999999999         -3.5757495868340289E-017
  -1.1476000000000000         -4.4577276062462444E-017
  -1.1475000000000000         -5.2936756715478442E-017
  -1.1474000000000000         -6.0414095567320938E-017
  -1.1473000000000000         -6.6559339451985588E-017
  -1.1472000000000000         -7.0909138186267138E-017
  -1.1471000000000000         -7.3003883752051525E-017
  -1.1470000000000000         -7.2407195362825174E-017
  -1.1469000000000000         -6.8727750414401497E-017
  -1.1468000000000000         -6.1641922763925249E-017
  -1.1467000000000001         -5.0917241572044527E-017
  -1.1465999999999998         -3.6435558977507157E-017
  -1.1464999999999999         -1.8214457531413566E-017
  -1.1463999999999999          3.5731199796667228E-018
  -1.1462999999999999          2.8583408046504633E-017
  -1.1461999999999999          5.6290534039295091E-017
  -1.1460999999999999          8.5981335093938765E-017
  -1.1459999999999999          1.1675695374344368E-016
  -1.1458999999999999          1.4754243238585023E-016
  -1.1457999999999999          1.7710371019145790E-016
  -1.1456999999999999          2.0407454948612511E-016
  -1.1456000000000000          2.2699252141663770E-016