 -0.23999999999999999          0.0000000000000000     
 -0.23949999999999999          0.0000000000000000     
 -0.23899999999999999          0.0000000000000000     
 -0.23849999999999999          0.0000000000000000     
 -0.23799999999999999          0.0000000000000000     
 -0.23749999999999999          0.0000000000000000     
 -0.23699999999999999          0.0000000000000000     
 -0.23649999999999999          0.0000000000000000     
 -0.23599999999999999          0.0000000000000000     
 -0.23549999999999999         -7.4995384023444801E-038
 -0.23499999999999999         -1.4593958168547114E-036
 -0.23449999999999999         -1.4551406693845973E-035
 -0.23399999999999999         -1.0002268452366792E-034
 -0.23349999999999999         -5.3203692619433339E-034
 -0.23299999999999998         -2.3299919333021321E-033
 -0.23249999999999998         -8.7347196850731148E-033
 -0.23199999999999998         -2.8780353563937462E-032
 -0.23149999999999998         -8.4928841642593131E-032
 -0.23099999999999998         -2.2757227122614112E-031
 -0.23049999999999998         -5.5946000224170090E-031
 -0.22999999999999998         -1.2716331011021870E-030
 -0.22949999999999998         -2.6875606489888768E-030
 -0.22899999999999998         -5.3020459449811696E-030
 -0.22849999999999998         -9.7848373344562153E-030
 -0.22799999999999998         -1.6896701876329723E-029
 -0.22749999999999998         -2.7242527400846168E-029
 -0.22699999999999998         -4.0772194846140807E-029
 -0.22649999999999998         -5.5951948867709844E-029
 -0.22599999999999998         -6.8587661277866989E-029
 -0.22549999999999998         -7.0409397151170320E-029
 -0.22499999999999998         -4.7736612190452763E-029
 -0.22449999999999998          1.9171871789674038E-029
 -0.22399999999999998          1.5515749599660066E-028
 -0.22349999999999998          3.8639561344386867E-028
 -0.22299999999999998          7.3254496946438053E-028
 -0.22249999999999998          1.1938143140298477E-027
 -0.22199999999999998          1.7327800613670016E-027
 -0.22150000000000000          2.2523165784449785E-027
 -0.22100000000000000          2.5732980119236988E-027
 -0.22050000000000000          2.4185854757466184E-027
 -0.22000000000000000          1.4128852042817423E-027
 -0.21950000000000000         -8.8949297790019467E-028
 -0.21900000000000000         -4.9359722522879612E-027
 -0.21850000000000000         -1.1055173275441451E-026
 -0.21800000000000000         -1.9279679289356143E-026
 -0.21750000000000000         -2.9118395343114772E-026
 -0.21700000000000000         -3.9301585807308530E-026
 -0.21650000000000000         -4.7542699406134016E-026
 -0.21600000000000000         -5.0384635855143230E-026
 -0.21550000000000000         -4.3219497299864830E-026
 -0.21500000000000000         -2.0584530482594499E-026
 -0.21450000000000000          2.3164695569896525E-026
 -0.21400000000000000          9.2726325679013149E-026
 -0.21350000000000000          1.9024600128218123E-025
 -0.21299999999999999          3.1329638636017000E-025
 -0.21249999999999999          4.5262435416260607E-025
 -0.21199999999999999          5.8999253394226942E-025
 -0.21149999999999999          6.9659565077334533E-025
 -0.21099999999999999          7.3266469295448068E-025
 -0.21049999999999999          6.4895649967530981E-025
 -0.20999999999999999          3.9082203454428533E-025
 -0.20949999999999999         -9.4596518245588769E-026
 -0.20899999999999999         -8.4778915246530064E-025
 -0.20849999999999999         -1.8831613919440032E-024
 -0.20799999999999999         -3.1730897315287247E-024
 -0.20749999999999999         -4.6314618663288700E-024
 -0.20699999999999999         -6.0992906174975334E-024
 -0.20649999999999999         -7.3357969318849436E-024
 -0.20599999999999999         -8.0189315461953339E-024
 -0.20549999999999999         -7.7594722083915673E-024
 -0.20499999999999999         -6.1323725163271340E-024
 -0.20449999999999999         -2.7278210499531404E-024
 -0.20399999999999999          2.7776749516973319E-024
 -0.20349999999999999          1.0532919728924741E-023
 -0.20299999999999999          2.0412849275290204E-023
 -0.20249999999999999          3.1919381931684393E-023
 -0.20199999999999999          4.4097289406727194E-023
 -0.20149999999999998          5.5483586783665125E-023
 -0.20099999999999998          6.4111097217459387E-023
 -0.20049999999999998          6.7586416843723219E-023
 -0.19999999999999998          6.3259170312694995E-023
 -0.19949999999999998          4.8492296989029160E-023
 -0.19899999999999998          2.1032162743682129E-023
 -0.19849999999999998         -2.0537388818768110E-023
 -0.19799999999999998         -7.6290135620142008E-023
 -0.19749999999999998         -1.4445341396147976E-022
 -0.19699999999999998         -2.2097357400796657E-022
 -0.19649999999999998         -2.9923311964198751E-022
 -0.19600000000000001         -3.7000768845762661E-022
 -0.19550000000000001         -4.2174755506809210E-022
 -0.19500000000000001         -4.4125114958284252E-022
 -0.19450000000000001         -4.1476885000539089E-022
 -0.19400000000000001         -3.2952923697140122E-022
 -0.19350000000000001         -1.7562452967963061E-022
 -0.19300000000000000          5.1873118191540311E-023
 -0.19250000000000000          3.5076009055939089E-022
 -0.19200000000000000          7.0976836715478825E-022
 -0.19150000000000000          1.1071517772372547E-021
 -0.19100000000000000          1.5101082937004694E-021
 -0.19050000000000000          1.8753395878433453E-021
 -0.19000000000000000          2.1509933038601107E-021
 -0.18950000000000000          2.2801270318429053E-021
 -0.18900000000000000          2.2056916631881302E-021
 -0.18850000000000000          1.8768512343445322E-021
 -0.18800000000000000          1.2562491863915715E-021
 -0.18750000000000000          3.2763314930204546E-022
 -0.18700000000000000         -8.9693434600058491E-022
 -0.18650000000000000         -2.3711904310828268E-021
 -0.18600000000000000         -4.0110735661118413E-021
 -0.18550000000000000         -5.6943389577095342E-021
 -0.18500000000000000         -7.2641583924792803E-021
 -0.18450000000000000         -8.5372003818603429E-021
 -0.18400000000000000         -9.3163026467419896E-021
 -0.18350000000000000         -9.4073629853701941E-021
 -0.18300000000000000         -8.6395347263272634E-021
 -0.18250000000000000         -6.8872981091605480E-021
 -0.18200000000000000         -4.0924497954556744E-021
 -0.18149999999999999         -2.8375241155712962E-022
 -0.18099999999999999          4.4082768739768549E-021
 -0.18049999999999999          9.7438223037167610E-021
 -0.17999999999999999          1.5375592185595229E-020
 -0.17949999999999999          2.0861501513400449E-020
 -0.17899999999999999          2.5688847500156928E-020
 -0.17849999999999999          2.9309506303502258E-020
 -0.17799999999999999          3.1184486391567943E-020
 -0.17749999999999999          3.0834991105606209E-020
 -0.17699999999999999          2.7895903697314018E-020
 -0.17649999999999999          2.2166892392086158E-020
 -0.17599999999999999          1.3655777840114602E-020
 -0.17549999999999999          2.6087026224017738E-021
 -0.17499999999999999         -1.0477522178854979E-020
 -0.17449999999999999         -2.4864665160576340E-020
 -0.17399999999999999         -3.9605783486251759E-020
 -0.17349999999999999         -5.3601309876905734E-020
 -0.17299999999999999         -6.5675906259427612E-020
 -0.17249999999999999         -7.4671016115921403E-020
 -0.17199999999999999         -7.9546085515604994E-020
 -0.17149999999999999         -7.9479426321226351E-020
 -0.17099999999999999         -7.3958725490976412E-020
 -0.17049999999999998         -6.2851094827234283E-020
 -0.16999999999999998         -4.6444004998128866E-020
 -0.16949999999999998         -2.5449824295182098E-020
 -0.16899999999999998         -9.7041458597012636E-022
 -0.16849999999999998          2.5578230067477531E-020
 -0.16799999999999998          5.2576743213120352E-020
 -0.16749999999999998          7.8339445130918115E-020
 -0.16699999999999998          1.0126551575974218E-019
 -0.16649999999999998          1.1998755908572489E-019
 -0.16599999999999998          1.3350042741741569E-019
 -0.16549999999999998          1.4125391664870390E-019
 -0.16499999999999998          1.4319406391690586E-019
 -0.16449999999999998          1.3974234664662037E-019
 -0.16399999999999998          1.3170978161529675E-019
 -0.16349999999999998          1.2014895525696309E-019
 -0.16299999999999998          1.0615590880491754E-019
 -0.16249999999999998          9.0643645846629364E-020
 -0.16199999999999998          7.4113770983373546E-020
 -0.16149999999999998          5.6459107218781933E-020
 -0.16099999999999998          3.6833520152294970E-020
 -0.16049999999999998          1.3620038663635597E-020
 -0.15999999999999998         -1.5475914947869118E-020
 -0.15949999999999998         -5.3189772086092466E-020
 -0.15899999999999997         -1.0232111012015826E-019
 -0.15849999999999997         -1.6522929475119249E-019
 -0.15799999999999997         -2.4323453809072586E-019
 -0.15749999999999997         -3.3599046098755011E-019
 -0.15699999999999997         -4.4088380262879370E-019
 -0.15649999999999997         -5.5255865214502059E-019
 -0.15599999999999997         -6.6264629255326294E-019
 -0.15549999999999997         -7.5978115953447293E-019
 -0.15499999999999997         -8.2998528174263547E-019
 -0.15449999999999997         -8.5745526910969489E-019
 -0.15399999999999997         -8.2577286328171885E-019
 -0.15349999999999997         -7.1950469831719327E-019
 -0.15299999999999997         -5.2611345915264596E-019
 -0.15249999999999997         -2.3803860401212453E-019
 -0.15200000000000000          1.4520127688861099E-019
 -0.15150000000000000          6.1512243123056833E-019
 -0.15100000000000000          1.1528314794697150E-018
 -0.15049999999999999          1.7282841462294907E-018
 -0.14999999999999999          2.3004722893671858E-018
 -0.14949999999999999          2.8186807075060437E-018
 -0.14899999999999999          3.2249994572287279E-018
 -0.14849999999999999          3.4580811315994026E-018
 -0.14799999999999999          3.4580238099854061E-018
 -0.14749999999999999          3.1722275328066270E-018
 -0.14699999999999999          2.5618272479535703E-018
 -0.14649999999999999          1.6082275207176880E-018
 -0.14599999999999999          3.1921002025236048E-019
 -0.14549999999999999         -1.2660745523786680E-018
 -0.14499999999999999         -3.0738770714303330E-018
 -0.14449999999999999         -4.9950397039078174E-018
 -0.14399999999999999         -6.8871289161973869E-018
 -0.14349999999999999         -8.5798922282993821E-018
 -0.14299999999999999         -9.8842828673375448E-018
 -0.14249999999999999         -1.0604803884383979E-017
 -0.14199999999999999         -1.0554906348178642E-017
 -0.14149999999999999         -9.5746404446418687E-018
 -0.14099999999999999         -7.5495303637545645E-018
 -0.14049999999999999         -4.4292168693767217E-018
 -0.13999999999999999         -2.4431563949162424E-019
 -0.13949999999999999          4.8800714085126038E-018
 -0.13899999999999998          1.0715996281841084E-017
 -0.13849999999999998          1.6931060555245984E-017
 -0.13799999999999998          2.3094973146123274E-017
 -0.13749999999999998          2.8694897331451243E-017
 -0.13699999999999998          3.3159985403630329E-017
 -0.13649999999999998          3.5894973646858255E-017
 -0.13599999999999998          3.6321490363115461E-017
 -0.13550000000000001          3.3925149117911626E-017
 -0.13500000000000001          2.8305977258261841E-017
 -0.13450000000000001          1.9228737047348876E-017
 -0.13400000000000001          6.6699563680350703E-018
 -0.13350000000000001         -9.1436475485711416E-018
 -0.13300000000000001         -2.7708222466123309E-017
 -0.13250000000000001         -4.8230873771361330E-017
 -0.13200000000000001         -6.9637181383485309E-017
 -0.13150000000000001         -9.0599424639600243E-017
 -0.13100000000000001         -1.0958653047588584E-016
 -0.13050000000000000         -1.2493507335617255E-016
 -0.13000000000000000         -1.3494039430064008E-016
 -0.12950000000000000         -1.3796334854675407E-016
 -0.12900000000000000         -1.3254675988253210E-016
 -0.12850000000000000         -1.1753744038738671E-016
 -0.12800000000000000         -9.2202527808558075E-017
 -0.12750000000000000         -5.6336325714815773E-017
 -0.12700000000000000         -1.0346256078872817E-017
 -0.12650000000000000          4.4688984612952019E-017
 -0.12600000000000000          1.0699609231601374E-016
 -0.12550000000000000          1.7412248371539485E-016
 -0.12499999999999999          2.4299532746099853E-016
 -0.12449999999999999          3.1002283540419516E-016
 -0.12399999999999999          3.7123736749849547E-016
 -0.12349999999999998          4.2247415558300339E-016
 -0.12299999999999998          4.5957744954179540E-016
 -0.12249999999999998          4.7862479176503437E-016
 -0.12199999999999998          4.7615802825948648E-016
 -0.12149999999999998          4.4940978501679088E-016
 -0.12099999999999998          3.9650520962850537E-016
 -0.12049999999999998          3.1663317255088651E-016
 -0.12000000000000000          2.1017420038259981E-016
 -0.11950000000000000          7.8778261893002040E-017
 -0.11899999999999999         -7.4625712922770749E-017
 -0.11849999999999999         -2.4586889664432834E-016
 -0.11799999999999999         -4.2964796436653923E-016
 -0.11749999999999999         -6.1968401496677871E-016
 -0.11699999999999999         -8.0893056460879965E-016
 -0.11649999999999999         -9.8981047113341732E-016
 -0.11599999999999999         -1.1544732971091374E-015
 -0.11549999999999999         -1.2950726505771224E-015
 -0.11499999999999999         -1.4040232195649563E-015
 -0.11449999999999999         -1.4742405455877763E-015
 -0.11399999999999999         -1.4993682868925202E-015
 -0.11349999999999999         -1.4739540252154299E-015
 -0.11299999999999999         -1.3935944694193440E-015
 -0.11249999999999999         -1.2550603730633925E-015
 -0.11199999999999999         -1.0563686353018461E-015
 -0.11149999999999999         -7.9686431813343490E-016
 -0.11099999999999999         -4.7727181717121424E-016
 -0.11049999999999999         -9.9768228127859488E-017
 -0.10999999999999999          3.3192989303201832E-016
 -0.10949999999999999          8.1245520746705931E-016
 -0.10899999999999999          1.3346384444251656E-015
 -0.10849999999999999          1.8893570885511640E-015
 -0.10799999999999998          2.4653360354411719E-015
 -0.10749999999999998          3.0489594256892154E-015
 -0.10699999999999998          3.6241214200180767E-015
 -0.10649999999999998          4.1721222080650015E-015
 -0.10599999999999998          4.6716497974939626E-015
 -0.10549999999999998          5.0989197509760928E-015
 -0.10499999999999998          5.4279511884614577E-015
 -0.10449999999999998          5.6311040056138864E-015
 -0.10399999999999998          5.6797876759687184E-015
 -0.10349999999999998          5.5455092180997096E-015
 -0.10299999999999998          5.2010681405146168E-015
 -0.10249999999999998          4.6220566198761723E-015
 -0.10199999999999998          3.7884448049381569E-015
 -0.10149999999999998          2.6864191986851899E-015
 -0.10099999999999998          1.3101982293114193E-015
 -0.10049999999999998         -3.3621687218130329E-016
  -9.9999999999999978E-002    -2.2374237263153819E-015
  -9.9499999999999977E-002    -4.3653244323725636E-015
  -9.8999999999999977E-002    -6.6782344824351336E-015
  -9.8499999999999976E-002    -9.1203755911181032E-015
  -9.7999999999999976E-002    -1.1622239343362939E-014
  -9.7499999999999976E-002    -1.4101357961107595E-014
  -9.6999999999999975E-002    -1.6463922086362082E-014
  -9.6499999999999975E-002    -1.8607189373590253E-014
  -9.5999999999999974E-002    -2.0422517363129895E-014
  -9.5500000000000002E-002    -2.1799082218061122E-014
  -9.5000000000000001E-002    -2.2627948201756330E-014
  -9.4500000000000001E-002    -2.2806728910575666E-014
  -9.4000000000000000E-002    -2.2244235858601854E-014
  -9.3500000000000000E-002    -2.0865332394112584E-014
  -9.2999999999999999E-002    -1.8615232004098789E-014
  -9.2499999999999999E-002    -1.5463576026607689E-014
  -9.1999999999999998E-002    -1.1407820852518894E-014
  -9.1499999999999998E-002    -6.4758039548309882E-015
  -9.0999999999999998E-002    -7.2722772548287774E-016
  -9.0499999999999997E-002     5.7459218249746229E-015
  -8.9999999999999997E-002     1.2819805106892478E-014
  -8.9499999999999996E-002     2.0340599169671704E-014
  -8.8999999999999996E-002     2.8127404813798436E-014
  -8.8499999999999995E-002     3.5976092505255639E-014
  -8.7999999999999995E-002     4.3663809795654060E-014
  -8.7499999999999994E-002     5.0954262837200171E-014
  -8.6999999999999994E-002     5.7603917264714580E-014
  -8.6499999999999994E-002     6.3367447127290139E-014
  -8.5999999999999993E-002     6.8004088716245448E-014
  -8.5499999999999993E-002     7.1284148955234811E-014
  -8.4999999999999992E-002     7.2993830402245797E-014
  -8.4499999999999992E-002     7.2941698305204175E-014
  -8.3999999999999991E-002     7.0963302489823193E-014
  -8.3499999999999991E-002     6.6925929772387564E-014
  -8.2999999999999990E-002     6.0733435678735333E-014
  -8.2499999999999990E-002     5.2329828323577726E-014
  -8.1999999999999990E-002     4.1702598184540832E-014
  -8.1499999999999989E-002     2.8886525812365431E-014
  -8.0999999999999989E-002     1.3966923907174379E-014
  -8.0499999999999988E-002    -2.9174601447478523E-015
  -7.9999999999999988E-002    -2.1571642942358572E-014
  -7.9499999999999987E-002    -4.1742705382336161E-014
  -7.8999999999999987E-002    -6.3118277375890935E-014
  -7.8499999999999986E-002    -8.5325168542910054E-014
  -7.7999999999999986E-002    -1.0793012490078153E-013
  -7.7499999999999986E-002    -1.3044205228523545E-013
  -7.6999999999999985E-002    -1.5231480065214518E-013
  -7.6499999999999985E-002    -1.7295518428704431E-013
  -7.5999999999999984E-002    -1.9173023371634425E-013
  -7.5499999999999984E-002    -2.0797809505507419E-013
  -7.4999999999999983E-002    -2.2102191863123438E-013
  -7.4499999999999983E-002    -2.3018758446127808E-013
  -7.3999999999999982E-002    -2.3482181858432936E-013
  -7.3499999999999982E-002    -2.3431446572422223E-013
  -7.2999999999999982E-002    -2.2811893937178708E-013
  -7.2499999999999981E-002    -2.1577842921684975E-013
  -7.1999999999999981E-002    -1.9694850608306621E-013
  -7.1499999999999980E-002    -1.7141843743127918E-013
  -7.0999999999999980E-002    -1.3913292837815307E-013
  -7.0499999999999979E-002    -1.0020733206795466E-013
  -6.9999999999999979E-002    -5.4938887166072029E-014
  -6.9499999999999978E-002    -3.8175159439485254E-015
  -6.8999999999999978E-002     5.2474486304289629E-014
  -6.8499999999999978E-002     1.1306896261235953E-013
  -6.7999999999999977E-002     1.7692168841976787E-013
  -6.7499999999999977E-002     2.4283147636496911E-013
  -6.6999999999999976E-002     3.0946585480848443E-013
  -6.6499999999999976E-002     3.7538799033995225E-013
  -6.5999999999999975E-002     4.3909372643459056E-013
  -6.5499999999999975E-002     4.9904404544826599E-013
  -6.4999999999999974E-002     5.5370490617481154E-013
  -6.4499999999999974E-002     6.0158505817673189E-013
  -6.4000000000000001E-002     6.4127271661865647E-013
  -6.3500000000000001E-002     6.7146218733640635E-013
  -6.3000000000000000E-002     6.9099140453470536E-013
  -6.2500000000000000E-002     6.9885661925705362E-013
  -6.2000000000000000E-002     6.9422289826821984E-013
  -6.1499999999999999E-002     6.7644540579270027E-013
  -6.0999999999999999E-002     6.4506608175915093E-013
  -6.0499999999999998E-002     5.9980843822798099E-013
  -5.9999999999999998E-002     5.4057378362579828E-013
  -5.9499999999999997E-002     4.6743065071701002E-013
  -5.8999999999999997E-002     3.8060139433892681E-013
  -5.8499999999999996E-002     2.8045426280986746E-013
  -5.7999999999999996E-002     1.6749282841585076E-013
  -5.7499999999999996E-002     4.2346315922125947E-014
  -5.6999999999999995E-002    -9.4224686406063693E-014
  -5.6499999999999995E-002    -2.4132033630149781E-013
  -5.5999999999999994E-002    -3.9788780969834248E-013
  -5.5499999999999994E-002    -5.6270815291131142E-013
  -5.4999999999999993E-002    -7.3435993054053821E-013
  -5.4499999999999993E-002    -9.1119375038192987E-013
  -5.3999999999999992E-002    -1.0912923039132259E-012
  -5.3499999999999992E-002    -1.2724394397172236E-012
  -5.2999999999999992E-002    -1.4521016229246159E-012
  -5.2499999999999991E-002    -1.6273909070015064E-012
  -5.1999999999999991E-002    -1.7950616193214921E-012
  -5.1499999999999990E-002    -1.9514879897441792E-012
  -5.0999999999999990E-002    -2.0927131841066649E-012
  -5.0499999999999989E-002    -2.2144616197868028E-012
  -4.9999999999999989E-002    -2.3122109984726208E-012
  -4.9499999999999988E-002    -2.3812337111044123E-012
  -4.8999999999999988E-002    -2.4167180084036355E-012
  -4.8499999999999988E-002    -2.4138944864943024E-012
  -4.7999999999999987E-002    -2.3681492728681663E-012
  -4.7499999999999987E-002    -2.2751648481666614E-012
  -4.6999999999999986E-002    -2.1310716701973367E-012
  -4.6499999999999986E-002    -1.9326205635423092E-012
  -4.5999999999999985E-002    -1.6773338538684738E-012
  -4.5499999999999985E-002    -1.3636186392272242E-012
  -4.4999999999999984E-002    -9.9093354961954128E-013
  -4.4499999999999984E-002    -5.5993347833943769E-013
  -4.3999999999999984E-002    -7.2506340175203648E-014
  -4.3499999999999983E-002     4.6816748284181455E-013
  -4.2999999999999983E-002     1.0575216642972250E-012
  -4.2499999999999982E-002     1.6896633593210809E-012
  -4.1999999999999982E-002     2.3573894996472390E-012
  -4.1499999999999981E-002     3.0521941718073964E-012
  -4.0999999999999981E-002     3.7644047946147367E-012
  -4.0499999999999980E-002     4.4833784035268410E-012
  -3.9999999999999980E-002     5.1975500857096631E-012
  -3.9499999999999980E-002     5.8945748009956972E-012
  -3.8999999999999979E-002     6.5616068406569656E-012
  -3.8499999999999979E-002     7.1853856466067874E-012
  -3.7999999999999978E-002     7.7525816199864864E-012
  -3.7499999999999978E-002     8.2497948532602016E-012
  -3.6999999999999977E-002     8.6638392999765259E-012
  -3.6499999999999977E-002     8.9820167398542649E-012
  -3.5999999999999976E-002     9.1922049389580928E-012
  -3.5499999999999976E-002     9.2829522069691572E-012
  -3.4999999999999976E-002     9.2436839171283020E-012
  -3.4499999999999975E-002     9.0650577135019407E-012
  -3.3999999999999975E-002     8.7389527014495694E-012
  -3.3499999999999974E-002     8.2584868402320904E-012
  -3.2999999999999974E-002     7.6183433956786828E-012
  -3.2499999999999973E-002     6.8149100675351442E-012
  -3.1999999999999973E-002     5.8462551589358231E-012
  -3.1500000000000000E-002     4.7123260728444595E-012
  -3.1000000000000000E-002     3.4151048359334219E-012
  -3.0499999999999999E-002     1.9588169611463284E-012
  -2.9999999999999999E-002     3.4989160671650902E-013
  -2.9499999999999998E-002    -1.4026518257897003E-012
  -2.8999999999999998E-002    -3.2873924506350481E-012
  -2.8499999999999998E-002    -5.2905340561708126E-012
  -2.7999999999999997E-002    -7.3955244814020327E-012
  -2.7499999999999997E-002    -9.5830015110622078E-012
  -2.6999999999999996E-002    -1.1831210350895254E-011
  -2.6499999999999996E-002    -1.4115476426028076E-011
  -2.5999999999999995E-002    -1.6408979869032808E-011
  -2.5499999999999995E-002    -1.8682985273750704E-011
  -2.4999999999999994E-002    -2.0906236492365757E-011
  -2.4499999999999994E-002    -2.3045527286925878E-011
  -2.3999999999999994E-002    -2.5066603223231255E-011
  -2.3499999999999993E-002    -2.6934042563688621E-011
  -2.2999999999999993E-002    -2.8612019483986146E-011
  -2.2499999999999992E-002    -3.0063741581936074E-011
  -2.1999999999999992E-002    -3.1252741515081588E-011
  -2.1499999999999991E-002    -3.2144127688016020E-011
  -2.0999999999999991E-002    -3.2703772795675727E-011
  -2.0499999999999990E-002    -3.2898925768718967E-011
  -1.9999999999999990E-002    -3.2699554548696729E-011
  -1.9499999999999990E-002    -3.2078934165568031E-011
  -1.8999999999999989E-002    -3.1012399894274906E-011
  -1.8499999999999989E-002    -2.9478372160008424E-011
  -1.7999999999999988E-002    -2.7460984682955398E-011
  -1.7499999999999988E-002    -2.4947079260556066E-011
  -1.6999999999999987E-002    -2.1929281616446012E-011
  -1.6499999999999987E-002    -1.8406366417524710E-011
  -1.5999999999999986E-002    -1.4380229469473468E-011
  -1.5499999999999986E-002    -9.8583950750094484E-012
  -1.4999999999999986E-002    -4.8559779806724126E-012
  -1.4499999999999985E-002     6.0553596223292361E-013
  -1.3999999999999985E-002     6.4992072821757455E-012
  -1.3499999999999984E-002     1.2789917045454892E-011
  -1.2999999999999984E-002     1.9436255489094399E-011
  -1.2499999999999983E-002     2.6387897821652687E-011
  -1.1999999999999983E-002     3.3588361887415311E-011
  -1.1499999999999982E-002     4.0972582023824488E-011
  -1.0999999999999982E-002     4.8463110216248217E-011
  -1.0499999999999982E-002     5.5977578048280110E-011
  -9.9999999999999811E-003     6.3422901436701849E-011
  -9.4999999999999807E-003     7.0695586070025670E-011
  -8.9999999999999802E-003     7.7680697510355903E-011
  -8.4999999999999798E-003     8.4253504866055904E-011
  -7.9999999999999793E-003     9.0278908228674287E-011
  -7.4999999999999789E-003     9.5612118780155732E-011
  -6.9999999999999785E-003     1.0009850082646087E-010
  -6.4999999999999780E-003     1.0357162762881867E-010
  -5.9999999999999776E-003     1.0585460270710186E-010
  -5.4999999999999771E-003     1.0676112935747255E-010
  -4.9999999999999767E-003     1.0610275543600188E-010
  -4.4999999999999762E-003     1.0367720579712372E-010
  -3.9999999999999758E-003     9.9279198082622529E-011
  -3.4999999999999754E-003     9.2699741651776162E-011
  -2.9999999999999749E-003     8.3722963169922550E-011
  -2.4999999999999745E-003     7.2131513722302772E-011
  -1.9999999999999740E-003     5.7702470476506015E-011
  -1.4999999999999736E-003     4.0225289467744678E-011
  -9.9999999999997313E-004     1.9488507031634126E-011
  -4.9999999999997269E-004    -4.7347289219844498E-012
   0.0000000000000000         -3.2651786993331298E-011
   5.0000000000000044E-004    -6.4475637480845623E-011
   1.0000000000000009E-003    -1.0042073897549221E-010
   1.5000000000000013E-003    -1.4069759084062153E-010
   2.0000000000000018E-003    -1.8548181219275728E-010
   2.5000000000000022E-003    -2.3498677901557200E-010
   3.0000000000000027E-003    -2.8942574701367910E-010
   3.5000000000000031E-003    -3.4899100118225105E-010
   4.0000000000000036E-003    -4.1387936737569538E-010
   4.5000000000000040E-003    -4.8431354767939468E-010
   5.0000000000000044E-003    -5.6051120921250118E-010
   5.5000000000000049E-003    -6.4268064789508911E-010
   6.0000000000000053E-003    -7.3102667884122047E-010
   6.5000000000000058E-003    -8.2578770891627514E-010
   7.0000000000000062E-003    -9.2725596654770112E-010
   7.5000000000000067E-003    -1.0356941180968021E-009
   8.0000000000000071E-003    -1.1513394329846000E-009
   8.5000000000000075E-003    -1.2745221834790162E-009
   9.0000000000000080E-003    -1.4055729505162069E-009
   9.5000000000000084E-003    -1.5448623536187118E-009
   1.0000000000000009E-002    -1.6927360098041459E-009
   1.0500000000000009E-002    -1.8496198565193605E-009
   1.1000000000000010E-002    -2.0159138777967972E-009
   1.1500000000000010E-002    -2.1921320130030259E-009
   1.2000000000000011E-002    -2.3788767886194276E-009
   1.2500000000000011E-002    -2.5766541864782327E-009
   1.3000000000000012E-002    -2.7862095017790884E-009
   1.3500000000000012E-002    -3.0083131427177423E-009
   1.4000000000000012E-002    -3.2436494040260004E-009
   1.4500000000000013E-002    -3.4930669718425876E-009
   1.5000000000000013E-002    -3.7574438652070970E-009
   1.5500000000000014E-002    -4.0377371019469285E-009
   1.6000000000000014E-002    -4.3350899323266453E-009
   1.6500000000000015E-002    -4.6505996373571088E-009
   1.7000000000000015E-002    -4.9854954377528594E-009
   1.7500000000000016E-002    -5.3410347144777725E-009
   1.8000000000000016E-002    -5.7186622026009483E-009
   1.8500000000000016E-002    -6.1199063333303133E-009
   1.9000000000000017E-002    -6.5462263123081800E-009
   1.9500000000000017E-002    -6.9995159235923849E-009
   2.0000000000000018E-002    -7.4814463133695127E-009
   2.0500000000000018E-002    -7.9941908570165686E-009
   2.1000000000000019E-002    -8.5395716705165663E-009
   2.1500000000000019E-002    -9.1196445048128271E-009
   2.2000000000000020E-002    -9.7368966559558170E-009
   2.2500000000000020E-002    -1.0393856286110525E-008
   2.3000000000000020E-002    -1.1093213931910589E-008
   2.3500000000000021E-002    -1.1837861269262601E-008
   2.4000000000000021E-002    -1.2630651054941365E-008
   2.4500000000000022E-002    -1.3474676784791632E-008
   2.5000000000000022E-002    -1.4373100596482831E-008
   2.5500000000000023E-002    -1.5329941903864467E-008
   2.6000000000000023E-002    -1.6348984688957175E-008
   2.6500000000000024E-002    -1.7434458669406654E-008
   2.7000000000000024E-002    -1.8590914387709403E-008
   2.7500000000000024E-002    -1.9822861216769274E-008
   2.8000000000000025E-002    -2.1134738461156007E-008
   2.8500000000000025E-002    -2.2532498515281978E-008
   2.9000000000000026E-002    -2.4021102036180612E-008
   2.9500000000000026E-002    -2.5606402802596894E-008
   3.0000000000000027E-002    -2.7294890890453635E-008
   3.0500000000000027E-002    -2.9093030190405291E-008
   3.1000000000000028E-002    -3.1006980292369583E-008
   3.1500000000000028E-002    -3.3045883888479159E-008
   3.2000000000000028E-002    -3.5217406639204693E-008