 -0.23999999999999999          0.0000000000000000     
 -0.23949999999999999          0.0000000000000000     
 -0.23899999999999999          0.0000000000000000     
 -0.23849999999999999          0.0000000000000000     
 -0.23799999999999999          0.0000000000000000     
 -0.23749999999999999          0.0000000000000000     
 -0.23699999999999999          0.0000000000000000     
 -0.23649999999999999          0.0000000000000000     
 -0.23599999999999999          0.0000000000000000     
 -0.23549999999999999          0.0000000000000000     
 -0.23499999999999999          0.0000000000000000     
 -0.23449999999999999         -1.4593959144299274E-039
 -0.23399999999999999         -1.4659410159785838E-038
 -0.23349999999999999         -1.0199030909083060E-037
 -0.23299999999999998         -5.4781024871738447E-037
 -0.23249999999999998         -2.4383223329791950E-036
 -0.23199999999999998         -9.2813819977331667E-036
 -0.23149999999999998         -3.1211826150614389E-035
 -0.23099999999999998         -9.4210227298342214E-035
 -0.23049999999999998         -2.5878411312704804E-034
 -0.22999999999999998         -6.5367032081930690E-034
 -0.22949999999999998         -1.5304174702289808E-033
 -0.22899999999999998         -3.3412313953588365E-033
 -0.22849999999999998         -6.8324639496764407E-033
 -0.22799999999999998         -1.3126068667098801E-032
 -0.22749999999999998         -2.3729166364224429E-032
 -0.22699999999999998         -4.0368606447246383E-032
 -0.22649999999999998         -6.4501375153370721E-032
 -0.22599999999999998         -9.6320557318653102E-032
 -0.22549999999999998         -1.3308901638511037E-031
 -0.22499999999999998         -1.6672992015107666E-031
 -0.22449999999999998         -1.8082564341927605E-031
 -0.22399999999999998         -1.4755801976293482E-031
 -0.22349999999999998         -2.5668108559634750E-032
 -0.22299999999999998          2.3883764625211780E-031
 -0.22249999999999998          7.0687703348892632E-031
 -0.22199999999999998          1.4326520657107238E-030
 -0.22150000000000000          2.4396570693073004E-030
 -0.22100000000000000          3.6849689072262755E-030
 -0.22050000000000000          5.0129560081086291E-030
 -0.22000000000000000          6.1035548888019159E-030
 -0.21950000000000000          6.4258422295152488E-030
 -0.21900000000000000          5.2140650064880815E-030
 -0.21850000000000000          1.4898730094113317E-030
 -0.21800000000000000         -5.8411047396031098E-030
 -0.21750000000000000         -1.7789805270738172E-029
 -0.21700000000000000         -3.4959504931744358E-029
 -0.21650000000000000         -5.7091392955173199E-029
 -0.21600000000000000         -8.2502212687905227E-029
 -0.21550000000000000         -1.0747603682414435E-028
 -0.21500000000000000         -1.2572170921742999E-028
 -0.21450000000000000         -1.2806055195032152E-028
 -0.21400000000000000         -1.0255703219577164E-028
 -0.21350000000000000         -3.5334245992807880E-029
 -0.21299999999999999          8.7689001326003231E-029
 -0.21249999999999999          2.7796225586633779E-028
 -0.21199999999999999          5.4031352040376006E-028
 -0.21149999999999999          8.6795488222894098E-028
 -0.21099999999999999          1.2369091606574513E-027
 -0.21049999999999999          1.6006196955245030E-027
 -0.20999999999999999          1.8858657319816520E-027
 -0.20949999999999999          1.9914415846006948E-027
 -0.20899999999999999          1.7912688977058134E-027
 -0.20849999999999999          1.1436522620028059E-027
 -0.20799999999999999         -9.1892623108475177E-029
 -0.20749999999999999         -2.0294374943942623E-027
 -0.20699999999999999         -4.7233542577076588E-027
 -0.20649999999999999         -8.1287282420380093E-027
 -0.20599999999999999         -1.2059151725725191E-026
 -0.20549999999999999         -1.6147658940468928E-026
 -0.20499999999999999         -1.9818622650644737E-026
 -0.20449999999999999         -2.2280030225502049E-026
 -0.20399999999999999         -2.2546443293367617E-026
 -0.20349999999999999         -1.9502352438204107E-026
 -0.20299999999999999         -1.2013523145989258E-026
 -0.20249999999999999          9.1049395591724866E-028
 -0.20199999999999999          1.9905858399338388E-026
 -0.20149999999999998          4.5007786149258725E-026
 -0.20099999999999998          7.5389447522293989E-026
 -0.20049999999999998          1.0911888482446705E-025
 -0.19999999999999998          1.4297587297073786E-025
 -0.19949999999999998          1.7237806341003246E-025
 -0.19899999999999998          1.9146817279960869E-025
 -0.19849999999999998          1.9341022760046977E-025
 -0.19799999999999998          1.7093078521127709E-025
 -0.19749999999999998          1.1712010203865607E-025
 -0.19699999999999998          2.6477370054231652E-026
 -0.19649999999999998         -1.0385350031180352E-025
 -0.19600000000000001         -2.7275577723287564E-025
 -0.19550000000000001         -4.7386123020592835E-025
 -0.19500000000000001         -6.9450334565299073E-025
 -0.19450000000000001         -9.1511245722150293E-025
 -0.19400000000000001         -1.1092722181660605E-024
 -0.19350000000000001         -1.2446415807495040E-024
 -0.19300000000000000         -1.2848967262167247E-024
 -0.19250000000000000         -1.1927683919078239E-024
 -0.19200000000000000         -9.3413658948071727E-025
 -0.19150000000000000         -4.8300001096344175E-025
 -0.19100000000000000          1.7301518091051278E-025
 -0.19050000000000000          1.0271082238916183E-024
 -0.19000000000000000          2.0483549416364067E-024
 -0.18950000000000000          3.1781017455801019E-024
 -0.18900000000000000          4.3284819631659255E-024
 -0.18850000000000000          5.3837934567902742E-024
 -0.18800000000000000          6.2053333537168830E-024
 -0.18750000000000000          6.6400424210353925E-024
 -0.18700000000000000          6.5329660932400072E-024
 -0.18650000000000000          5.7431075256151501E-024
 -0.18600000000000000          4.1617759237720012E-024
 -0.18550000000000000          1.7320342521118249E-024
 -0.18500000000000000         -1.5325633596348777E-024
 -0.18450000000000000         -5.5321236522691997E-024
 -0.18400000000000000         -1.0069763538374297E-023
 -0.18350000000000000         -1.4848426309255109E-023
 -0.18300000000000000         -1.9477126480793028E-023
 -0.18250000000000000         -2.3487959354037079E-023
 -0.18200000000000000         -2.6364422285243269E-023
 -0.18149999999999999         -2.7580410548470329E-023
 -0.18099999999999999         -2.6648176724360395E-023
 -0.18049999999999999         -2.3172133469099130E-023
 -0.17999999999999999         -1.6904352637875274E-023
 -0.17949999999999999         -7.7965379371485998E-024
 -0.17899999999999999          3.9571546645212584E-024
 -0.17849999999999999          1.7892314442752562E-023
 -0.17799999999999999          3.3266662781608844E-023
 -0.17749999999999999          4.9076806053924733E-023
 -0.17699999999999999          6.4101659826323413E-023
 -0.17649999999999999          7.6972710202689982E-023
 -0.17599999999999999          8.6268555400861369E-023
 -0.17549999999999999          9.0628488852783758E-023
 -0.17499999999999999          8.8877256234815953E-023
 -0.17449999999999999          8.0150971447145691E-023
 -0.17399999999999999          6.4012595476311067E-023
 -0.17349999999999999          4.0545180312206128E-023
 -0.17299999999999999          1.0411272783658958E-023
 -0.17249999999999999         -2.5130728706907802E-023
 -0.17199999999999999         -6.4259757540206752E-023
 -0.17149999999999999         -1.0467685628708988E-022
 -0.17099999999999999         -1.4373918503639853E-022
 -0.17049999999999998         -1.7863556637141068E-022
 -0.16999999999999998         -2.0659028940466036E-022
 -0.16949999999999998         -2.2507957429320155E-022
 -0.16899999999999998         -2.3204010501650822E-022
 -0.16849999999999998         -2.2604996825987416E-022
 -0.16799999999999998         -2.0646187327126359E-022
 -0.16749999999999998         -1.7347323562910983E-022
 -0.16699999999999998         -1.2812237911155510E-022
 -0.16649999999999998         -7.2207651216046372E-023
 -0.16599999999999998         -8.1347733510263130E-024
 -0.16549999999999998          6.1292918767015466E-023
 -0.16499999999999998          1.3311936081520293E-022
 -0.16449999999999998          2.0448723311334296E-022
 -0.16399999999999998          2.7286187685204280E-022
 -0.16349999999999998          3.3619697699351079E-022
 -0.16299999999999998          3.9301077055086549E-022
 -0.16249999999999998          4.4235276517506232E-022
 -0.16199999999999998          4.8365424445922301E-022
 -0.16149999999999998          5.1646648062086464E-022
 -0.16099999999999998          5.4011325714039160E-022
 -0.16049999999999998          5.5329979219631483E-022
 -0.15999999999999998          5.5373329398004117E-022
 -0.15949999999999998          5.3782392468323650E-022
 -0.15899999999999997          5.0054342415757409E-022
 -0.15849999999999997          4.3550237747145836E-022
 -0.15799999999999997          3.3531485313636275E-022
 -0.15749999999999997          1.9226886271633238E-022
 -0.15699999999999997         -6.7557074820964691E-025
 -0.15649999999999997         -2.4861478170150595E-022
 -0.15599999999999997         -5.5323393854902843E-022
 -0.15549999999999997         -9.1126082469506476E-022
 -0.15499999999999997         -1.3130146431503743E-021
 -0.15449999999999997         -1.7412453507390908E-021
 -0.15399999999999997         -2.1704694609442615E-021
 -0.15349999999999997         -2.5670186356526465E-021
 -0.15299999999999997         -2.8899738905082846E-021
 -0.15249999999999997         -3.0931315227055844E-021
 -0.15200000000000000         -3.1280137537186153E-021
 -0.15150000000000000         -2.9479323589028450E-021
 -0.15100000000000000         -2.5128932073066120E-021
 -0.15049999999999999         -1.7951013458250279E-021
 -0.14999999999999999         -7.8461220401401185E-022
 -0.14949999999999999          5.0537122848013527E-022
 -0.14899999999999999          2.0340743536339680E-021
 -0.14849999999999999          3.7303757674745459E-021
 -0.14799999999999999          5.4921619909319566E-021
 -0.14749999999999999          7.1884030464793877E-021
 -0.14699999999999999          8.6643864749538077E-021
 -0.14649999999999999          9.7502295743508833E-021
 -0.14599999999999999          1.0272619157263154E-020
 -0.14549999999999999          1.0069439849953143E-020
 -0.14499999999999999          9.0065362950387820E-021
 -0.14449999999999999          6.9955547123880325E-021
 -0.14399999999999999          4.0115115527913290E-021
 -0.14349999999999999          1.0844857844610848E-022
 -0.14299999999999999         -4.5683749769690368E-021
 -0.14249999999999999         -9.7758351788038829E-021
 -0.14199999999999999         -1.5173154372115684E-020
 -0.14149999999999999         -2.0330732794373598E-020
 -0.14099999999999999         -2.4747813825138445E-020
 -0.14049999999999999         -2.7880284834991753E-020
 -0.13999999999999999         -2.9177088458356732E-020
 -0.13949999999999999         -2.8124612919741054E-020
 -0.13899999999999998         -2.4296951431777692E-020
 -0.13849999999999998         -1.7408568512431424E-020
 -0.13799999999999998         -7.3659193435353978E-021
 -0.13749999999999998          5.6863857971515004E-021
 -0.13699999999999998          2.1329022270128287E-020
 -0.13649999999999998          3.8846414258764125E-020
 -0.13599999999999998          5.7223916717999072E-020
 -0.13550000000000001          7.5167771397288182E-020
 -0.13500000000000001          9.1149051951933900E-020
 -0.13450000000000001          1.0347376496147168E-019
 -0.13400000000000001          1.1037781708360104E-019
 -0.13350000000000001          1.1014370589137124E-019
 -0.13300000000000001          1.0123390607698397E-019
 -0.13250000000000001          8.2435234540133798E-020
 -0.13200000000000001          5.3002663939961469E-020
 -0.13150000000000001          1.2797749849159861E-020
 -0.13100000000000001         -3.7596567260056314E-020
 -0.13050000000000000         -9.6788850927362527E-020
 -0.13000000000000000         -1.6253171548147590E-019
 -0.12950000000000000         -2.3172910718870109E-019
 -0.12900000000000000         -3.0049491338504923E-019
 -0.12850000000000000         -3.6427557731228517E-019
 -0.12800000000000000         -4.1803202138292300E-019
 -0.12750000000000000         -4.5647796103529622E-019
 -0.12700000000000000         -4.7436851020255160E-019
 -0.12650000000000000         -4.6682417214930126E-019
 -0.12600000000000000         -4.2967890017705871E-019
 -0.12550000000000000         -3.5982752489211568E-019
 -0.12499999999999999         -2.5555618191509077E-019
 -0.12449999999999999         -1.1683158471991833E-019
 -0.12399999999999999          5.4466834384454821E-020
 -0.12349999999999998          2.5440534361577155E-019
 -0.12299999999999998          4.7694078938701253E-019
 -0.12249999999999998          7.1398246322139560E-019
 -0.12199999999999998          9.5556583538573672E-019
 -0.12149999999999998          1.1901413650523495E-018
 -0.12099999999999998          1.4049761508481026E-018
 -0.12049999999999998          1.5866453429104281E-018
 -0.12000000000000000          1.7216074378404284E-018
 -0.11950000000000000          1.7968191651229737E-018
 -0.11899999999999999          1.8003866783709452E-018
 -0.11849999999999999          1.7221951079997222E-018
 -0.11799999999999999          1.5545181557302839E-018
 -0.11749999999999999          1.2925471644104479E-018
 -0.11699999999999999          9.3483174286730298E-019
 -0.11649999999999999          4.8361419886544067E-019
 -0.11599999999999999         -5.4979030925188811E-020
 -0.11549999999999999         -6.7086381166881300E-019
 -0.11499999999999999         -1.3500582285188744E-018
 -0.11449999999999999         -2.0748883806524554E-018
 -0.11399999999999999         -2.8242961649417943E-018
 -0.11349999999999999         -3.5742541068021620E-018
 -0.11299999999999999         -4.2982534480445492E-018
 -0.11249999999999999         -4.9678594664245184E-018
 -0.11199999999999999         -5.5533178252379707E-018
 -0.11149999999999999         -6.0242325511696562E-018
 -0.11099999999999999         -6.3501863408249654E-018
 -0.11049999999999999         -6.5015033204949755E-018
 -0.10999999999999999         -6.4499652613438961E-018
 -0.10949999999999999         -6.1696013141198628E-018
 -0.10899999999999999         -5.6375123355587322E-018
 -0.10849999999999999         -4.8349480048575983E-018
 -0.10799999999999998         -3.7481541040236902E-018
 -0.10749999999999998         -2.3696106530359576E-018
 -0.10699999999999998         -6.9918576290268728E-019
 -0.10649999999999998          1.2545352141876785E-018
 -0.10599999999999998          3.4729447923555046E-018
 -0.10549999999999998          5.9261865808123469E-018
 -0.10499999999999998          8.5718770129264291E-018
 -0.10449999999999998          1.1354144942603403E-017
 -0.10399999999999998          1.4203003423661066E-017
 -0.10349999999999998          1.7033934332332720E-017
 -0.10299999999999998          1.9748489860361828E-017
 -0.10249999999999998          2.2235006545315242E-017
 -0.10199999999999998          2.4370511237771666E-017
 -0.10149999999999998          2.6023434063848265E-017
 -0.10099999999999998          2.7056945260259243E-017
 -0.10049999999999998          2.7333648938113101E-017
  -9.9999999999999978E-002     2.6720756289331125E-017
  -9.9499999999999977E-002     2.5096211313239961E-017
  -9.8999999999999977E-002     2.2355389153659514E-017
  -9.8499999999999976E-002     1.8417977148237483E-017
  -9.7999999999999976E-002     1.3235012932092135E-017
  -9.7499999999999976E-002     6.7957294486952649E-018
  -9.6999999999999975E-002    -8.6632698925485211E-019
  -9.6499999999999975E-002    -9.6682776174507151E-018
  -9.5999999999999974E-002    -1.9473673212271023E-017
  -9.5500000000000002E-002    -3.0090763617189292E-017
  -9.5000000000000001E-002    -4.1272687981561699E-017
  -9.4500000000000001E-002    -5.2718741124772739E-017
  -9.4000000000000000E-002    -6.4079420211465226E-017
  -9.3500000000000000E-002    -7.4962994372917301E-017
  -9.2999999999999999E-002    -8.4944724121938333E-017
  -9.2499999999999999E-002    -9.3578295397662534E-017
  -9.1999999999999998E-002    -1.0040846357944433E-016
  -9.1499999999999998E-002    -1.0498616980894110E-016
  -9.0999999999999998E-002    -1.0688416270917353E-016
  -9.0499999999999997E-002    -1.0571318238407746E-016
  -8.9999999999999997E-002    -1.0113786464841026E-016
  -8.9499999999999996E-002    -9.2893053562888254E-017
  -8.8999999999999996E-002    -8.0797215424210307E-017
  -8.8499999999999995E-002    -6.4765553541565473E-017
  -8.7999999999999995E-002    -4.4821214001746676E-017
  -8.7499999999999994E-002    -2.1101845450343213E-017
  -8.6999999999999994E-002     6.1332797128317058E-018
  -8.6499999999999994E-002     3.6502242309182009E-017
  -8.5999999999999993E-002     6.9501036061526653E-017
  -8.5499999999999993E-002     1.0450682125722640E-016
  -8.4999999999999992E-002     1.4078502349661623E-016
  -8.4499999999999992E-002     1.7750045625987791E-016
  -8.3999999999999991E-002     2.1372720271723778E-016
  -8.3499999999999991E-002     2.4846398256055954E-016
  -8.2999999999999990E-002     2.8065296046123967E-016
  -8.2499999999999990E-002     3.0919727957531542E-016
  -8.1999999999999990E-002     3.3298273968696859E-016
  -8.1499999999999989E-002     3.5090001663266867E-016
  -8.0999999999999989E-002     3.6186956522261007E-016
  -8.0499999999999988E-002     3.6486809359177802E-016
  -7.9999999999999988E-002     3.5895304895831740E-016
  -7.9499999999999987E-002     3.4329642921351374E-016
  -7.8999999999999987E-002     3.1721051736890812E-016
  -7.8499999999999986E-002     2.8017781121717737E-016
  -7.7999999999999986E-002     2.3188505858238191E-016
  -7.7499999999999986E-002     1.7224715828203830E-016
  -7.6999999999999985E-002     1.0144225973484114E-016
  -7.6499999999999985E-002     1.9931982400233844E-017
  -7.5999999999999984E-002    -7.1513577012322675E-017
  -7.5499999999999984E-002    -1.7179906663417045E-016
  -7.4999999999999983E-002    -2.7949181337425446E-016
  -7.4499999999999983E-002    -3.9282029465848632E-016
  -7.3999999999999982E-002    -5.0967748240467118E-016
  -7.3499999999999982E-002    -6.2764197231637696E-016
  -7.2999999999999982E-002    -7.4399324411296505E-016
  -7.2499999999999981E-002    -8.5576080089332707E-016
  -7.1999999999999981E-002    -9.5977346499005087E-016
  -7.1499999999999980E-002    -1.0527114481291318E-015
  -7.0999999999999980E-002    -1.1311911578263618E-015
  -7.0499999999999979E-002    -1.1918441268055363E-015
  -6.9999999999999979E-002    -1.2314002830465023E-015
  -6.9499999999999978E-002    -1.2467831009742942E-015
  -6.8999999999999978E-002    -1.2352166196096943E-015
  -6.8499999999999978E-002    -1.1943057324155269E-015
  -6.7999999999999977E-002    -1.1221411223469589E-015
  -6.7499999999999977E-002    -1.0173854337746823E-015
  -6.6999999999999976E-002    -8.7930783008509470E-016
  -6.6499999999999976E-002    -7.0791250316932022E-016
  -6.5999999999999975E-002    -5.0391743921451994E-016
  -6.5499999999999975E-002    -2.6881744656027967E-016
  -6.4999999999999974E-002    -4.8753507950461086E-018
  -6.4499999999999974E-002     2.8488616161021118E-016
  -6.4000000000000001E-002     5.9670911000579009E-016
  -6.3500000000000001E-002     9.2615693144380893E-016
  -6.3000000000000000E-002     1.2681670798699886E-015
  -6.2500000000000000E-002     1.6171452034340379E-015
  -6.2000000000000000E-002     1.9670273363040707E-015
  -6.1499999999999999E-002     2.3113706349211027E-015
  -6.0999999999999999E-002     2.6434749014446747E-015
  -6.0499999999999998E-002     2.9564397513407961E-015
  -5.9999999999999998E-002     3.2432837433269738E-015
  -5.9499999999999997E-002     3.4970138014739851E-015
  -5.8999999999999997E-002     3.7107101115758261E-015
  -5.8499999999999996E-002     3.8776110590098929E-015
  -5.7999999999999996E-002     3.9911685984216092E-015
  -5.7499999999999996E-002     4.0451072878047978E-015
  -5.6999999999999995E-002     4.0335050663807113E-015
  -5.6499999999999995E-002     3.9508843429924792E-015
  -5.5999999999999994E-002     3.7921926379716849E-015
  -5.5499999999999994E-002     3.5529815371346916E-015
  -5.4999999999999993E-002     3.2294931752723031E-015
  -5.4499999999999993E-002     2.8186392122643575E-015
  -5.3999999999999992E-002     2.3183063665388257E-015
  -5.3499999999999992E-002     1.7273598434647230E-015
  -5.2999999999999992E-002     1.0458597893266509E-015
  -5.2499999999999991E-002     2.7524926644509577E-016
  -5.1999999999999991E-002    -5.8153374811875402E-016
  -5.1499999999999990E-002    -1.5198240320748718E-015
  -5.0999999999999990E-002    -2.5330336354687366E-015
  -5.0499999999999989E-002    -3.6125620068831625E-015
  -4.9999999999999989E-002    -4.7475158193855241E-015
  -4.9499999999999988E-002    -5.9247801608736500E-015
  -4.8999999999999988E-002    -7.1287585257344364E-015
  -4.8499999999999988E-002    -8.3414789733231990E-015
  -4.7999999999999987E-002    -9.5426165793096539E-015
  -4.7499999999999987E-002    -1.0709586910233297E-014
  -4.6999999999999986E-002    -1.1817755299619495E-014
  -4.6499999999999986E-002    -1.2840635881497321E-014
  -4.5999999999999985E-002    -1.3750319476599343E-014
  -4.5499999999999985E-002    -1.4517893418257338E-014
  -4.4999999999999984E-002    -1.5113887977551832E-014
  -4.4499999999999984E-002    -1.5508864530162830E-014
  -4.3999999999999984E-002    -1.5673777189131273E-014
  -4.3499999999999983E-002    -1.5581218662638323E-014
  -4.2999999999999983E-002    -1.5205553034971893E-014
  -4.2499999999999982E-002    -1.4523736703891069E-014
  -4.1999999999999982E-002    -1.3515994893019086E-014
  -4.1499999999999981E-002    -1.2166398995912178E-014
  -4.0999999999999981E-002    -1.0463749818605209E-014
  -4.0499999999999980E-002    -8.4018891749606050E-015
  -3.9999999999999980E-002    -5.9803232843993111E-015
  -3.9499999999999980E-002    -3.2044079391955835E-015
  -3.8999999999999979E-002    -8.5688257933628099E-017
  -3.8499999999999979E-002     3.3573515595314952E-015
  -3.7999999999999978E-002     7.0996955686498383E-015
  -3.7499999999999978E-002     1.1109863843312817E-014
  -3.6999999999999977E-002     1.5349500820618704E-014
  -3.6499999999999977E-002     1.9773614358642478E-014
  -3.5999999999999976E-002     2.4331430258813598E-014
  -3.5499999999999976E-002     2.8965803394738285E-014
  -3.4999999999999976E-002     3.3614283738881020E-014
  -3.4499999999999975E-002     3.8209447765674176E-014
  -3.3999999999999975E-002     4.2679409582418619E-014
  -3.3499999999999974E-002     4.6948560814170540E-014
  -3.2999999999999974E-002     5.0938111269845588E-014
  -3.2499999999999973E-002     5.4567107813776286E-014
  -3.1999999999999973E-002     5.7753064864768494E-014
  -3.1500000000000000E-002     6.0413466376233526E-014
  -3.1000000000000000E-002     6.2465357579897717E-014
  -3.0499999999999999E-002     6.3828560784122412E-014
  -2.9999999999999999E-002     6.4424342602369295E-014
  -2.9499999999999998E-002     6.4178625694789052E-014
  -2.8999999999999998E-002     6.3021654943794876E-014
  -2.8499999999999998E-002     6.0890891033194702E-014
  -2.7999999999999997E-002     5.7731202264207171E-014
  -2.7499999999999997E-002     5.3495776035794421E-014
  -2.6999999999999996E-002     4.8148254914803963E-014
  -2.6499999999999996E-002     4.1664469672025928E-014
  -2.5999999999999995E-002     3.4033021833180354E-014
  -2.5499999999999995E-002     2.5255616115347527E-014
  -2.4999999999999994E-002     1.5349926042722901E-014
  -2.4499999999999994E-002     4.3492626333599072E-015
  -2.3999999999999994E-002    -7.6957512703922574E-015
  -2.3499999999999993E-002    -2.0717368388552233E-014
  -2.2999999999999993E-002    -3.4629401387329039E-014
  -2.2499999999999992E-002    -4.9329469481941422E-014
  -2.1999999999999992E-002    -6.4693473852452989E-014
  -2.1499999999999991E-002    -8.0582084727738876E-014
  -2.0999999999999991E-002    -9.6837403681019216E-014
  -2.0499999999999990E-002    -1.1328560527534367E-013
  -1.9999999999999990E-002    -1.2973572656290220E-013
  -1.9499999999999990E-002    -1.4598477297129212E-013
  -1.8999999999999989E-002    -1.6181452510748259E-013
  -1.8499999999999989E-002    -1.7699692840074763E-013
  -1.7999999999999988E-002    -1.9129312957661057E-013
  -1.7499999999999988E-002    -2.0445834808922563E-013
  -1.6999999999999987E-002    -2.1624126799297010E-013
  -1.6499999999999987E-002    -2.2638853868867447E-013
  -1.5999999999999986E-002    -2.3464776888794048E-013
  -1.5499999999999986E-002    -2.4076858401453563E-013
  -1.4999999999999986E-002    -2.4450587976298167E-013
  -1.4499999999999985E-002    -2.4562446152319337E-013
  -1.3999999999999985E-002    -2.4390074259154711E-013
  -1.3499999999999984E-002    -2.3912483398753062E-013
  -1.2999999999999984E-002    -2.3111154450886843E-013
  -1.2499999999999983E-002    -2.1968895686227562E-013
  -1.1999999999999983E-002    -2.0472266313062347E-013
  -1.1499999999999982E-002    -1.8610004049491081E-013
  -1.0999999999999982E-002    -1.6374843095082142E-013
  -1.0499999999999982E-002    -1.3763564549753942E-013
  -9.9999999999999811E-003    -1.0776899412465587E-013
  -9.4999999999999807E-003    -7.4210555223259628E-014
  -8.9999999999999802E-003    -3.7072103842745905E-014
  -8.4999999999999798E-003     3.4691055350318835E-015
  -7.9999999999999793E-003     4.7180249651581065E-014
  -7.4999999999999789E-003     9.3749675294250008E-014
  -6.9999999999999785E-003     1.4279368552936321E-013
  -6.4999999999999780E-003     1.9384970051684037E-013
  -5.9999999999999776E-003     2.4637051727782287E-013
  -5.4999999999999771E-003     2.9970541144932302E-013
  -4.9999999999999767E-003     3.5312865679615656E-013
  -4.4999999999999762E-003     4.0580545735449813E-013
  -3.9999999999999758E-003     4.5679681606393323E-013
  -3.4999999999999754E-003     5.0508266263264841E-013
  -2.9999999999999749E-003     5.4950187179036525E-013
  -2.4999999999999745E-003     5.8879805188389371E-013
  -1.9999999999999740E-003     6.2161604184743094E-013
  -1.4999999999999736E-003     6.4649960609266857E-013
  -9.9999999999997313E-004     6.6183394653614057E-013
  -4.9999999999997269E-004     6.6596835013520868E-013
   0.0000000000000000          6.5708407113444423E-013
   5.0000000000000044E-004     6.3330691816283565E-013
   1.0000000000000009E-003     5.9260415783148774E-013
   1.5000000000000013E-003     5.3288008319064296E-013
   2.0000000000000018E-003     4.5187865258770224E-013
   2.5000000000000022E-003     3.4735760730998609E-013
   3.0000000000000027E-003     2.1690020980188693E-013
   3.5000000000000031E-003     5.7929492845032171E-014
   4.0000000000000036E-003    -1.3212942675134713E-013
   4.5000000000000040E-003    -3.5598504706142825E-013
   5.0000000000000044E-003    -6.1643691640477170E-013
   5.5000000000000049E-003    -9.1647042036378865E-013
   6.0000000000000053E-003    -1.2591245224605292E-012
   6.5000000000000058E-003    -1.6474953508056056E-012
   7.0000000000000062E-003    -2.0848860662254512E-012
   7.5000000000000067E-003    -2.5746913775391930E-012
   8.0000000000000071E-003    -3.1205210141428141E-012
   8.5000000000000075E-003    -3.7259887078829820E-012
   9.0000000000000080E-003    -4.3950226043251811E-012
   9.5000000000000084E-003    -5.1316296740401108E-012
   1.0000000000000009E-002    -5.9399464504407337E-012
   1.0500000000000009E-002    -6.8244362101015512E-012
   1.1000000000000010E-002    -7.7896444857809314E-012
   1.1500000000000010E-002    -8.8404802239548109E-012
   1.2000000000000011E-002    -9.9821830374974533E-012
   1.2500000000000011E-002    -1.1219662076700505E-011
   1.3000000000000012E-002    -1.2558741280564755E-011
   1.3500000000000012E-002    -1.4005535564471678E-011
   1.4000000000000012E-002    -1.5566848452948598E-011
   1.4500000000000013E-002    -1.7249430489442709E-011
   1.5000000000000013E-002    -1.9060298525519496E-011
   1.5500000000000014E-002    -2.1007130318095110E-011
   1.6000000000000014E-002    -2.3098063097692243E-011
   1.6500000000000015E-002    -2.5341866249572273E-011
   1.7000000000000015E-002    -2.7748560811001910E-011
   1.7500000000000016E-002    -3.0326936760533606E-011
   1.8000000000000016E-002    -3.3088893346653067E-011
   1.8500000000000016E-002    -3.6045084451333763E-011
   1.9000000000000017E-002    -3.9208060468571623E-011
   1.9500000000000017E-002    -4.2590813055051586E-011
   2.0000000000000018E-002    -4.6206527869538774E-011
   2.0500000000000018E-002    -5.0071167047602115E-011
   2.1000000000000019E-002    -5.4200498946091264E-011
   2.1500000000000019E-002    -5.8610464910803611E-011
   2.2000000000000020E-002    -6.3319490275839567E-011
   2.2500000000000020E-002    -6.8346995852773534E-011
   2.3000000000000020E-002    -7.3714038765527237E-011
   2.3500000000000021E-002    -7.9440918853081033E-011
   2.4000000000000021E-002    -8.5551712324222576E-011
   2.4500000000000022E-002    -9.2072898535834486E-011
   2.5000000000000022E-002    -9.9028819876344702E-011
   2.5500000000000023E-002    -1.0644670412614981E-010
   2.6000000000000023E-002    -1.1435938714833067E-010
   2.6500000000000024E-002    -1.2279546055899431E-010
   2.7000000000000024E-002    -1.3179265674333942E-010
   2.7500000000000024E-002    -1.4138552981882450E-010
   2.8000000000000025E-002    -1.5161563978347545E-010
   2.8500000000000025E-002    -1.6252125530986980E-010
   2.9000000000000026E-002    -1.7414808123316548E-010
   2.9500000000000026E-002    -1.8654420219409211E-010
   3.0000000000000027E-002    -1.9975656485781111E-010
   3.0500000000000027E-002    -2.1384060549620033E-010
   3.1000000000000028E-002    -2.2885034266614338E-010
   3.1500000000000028E-002    -2.4484957430154586E-010
   3.2000000000000028E-002    -2.6189807923997877E-010