 -0.23999999999999999          0.0000000000000000     
 -0.23949999999999999          0.0000000000000000     
 -0.23899999999999999          3.2316215133575132E-013
 -0.23849999999999999          1.6007599976455844E-012
 -0.23799999999999999          4.7217425282186642E-012
 -0.23749999999999999          1.0752626219967532E-011
 -0.23699999999999999          2.0836667460888414E-011
 -0.23649999999999999          3.6083386278917828E-011
 -0.23599999999999999          5.7460237956608040E-011
 -0.23549999999999999          8.5697657303818175E-011
 -0.23499999999999999          1.2121686987498492E-010
 -0.23449999999999999          1.6408716052573880E-010
 -0.23399999999999999          2.1401604100024230E-010
 -0.23349999999999999          2.7037250216466191E-010
 -0.23299999999999998          3.3224040185686476E-010
 -0.23249999999999998          3.9849673560965471E-010
 -0.23199999999999998          4.6790721297540472E-010
 -0.23149999999999998          5.3923088216834003E-010
 -0.23099999999999998          6.1132560125187752E-010
 -0.23049999999999998          6.8324534918673407E-010
 -0.22999999999999998          7.5432260437935383E-010
 -0.22949999999999998          8.2422912939250637E-010
 -0.22899999999999998          8.9301105399286484E-010
 -0.22849999999999998          9.6109620262296858E-010
 -0.22799999999999998          1.0292718899407305E-009
 -0.22749999999999998          1.0986370702070758E-009
 -0.22699999999999998          1.1705313385235172E-009
 -0.22649999999999998          1.2464470566797559E-009
 -0.22599999999999998          1.3279319865944217E-009
 -0.22549999999999998          1.4164914796666039E-009
 -0.22499999999999998          1.5134978825770418E-009
 -0.22449999999999998          1.6201145980332399E-009
 -0.22399999999999998          1.7372429050865890E-009
 -0.22349999999999998          1.8654939815121452E-009
 -0.22299999999999998          2.0051886817640252E-009
 -0.22249999999999998          2.1563848484618120E-009
 -0.22199999999999998          2.3189259401590334E-009
 -0.22150000000000000          2.4925101982375963E-009
 -0.22100000000000000          2.6767676963856957E-009
 -0.22050000000000000          2.8713449395922908E-009
 -0.22000000000000000          3.0759845781602735E-009
 -0.21950000000000000          3.2905975722030689E-009
 -0.21900000000000000          3.5153244759555946E-009
 -0.21850000000000000          3.7505794026060357E-009
 -0.21800000000000000          3.9970804444067198E-009
 -0.21750000000000000          4.2558641055734370E-009
 -0.21700000000000000          4.5282835259286003E-009
 -0.21650000000000000          4.8159938259573210E-009
 -0.21600000000000000          5.1209254614548172E-009
 -0.21550000000000000          5.4452473641219967E-009
 -0.21500000000000000          5.7913220885552619E-009
 -0.21450000000000000          6.1616520774521177E-009
 -0.21400000000000000          6.5588228181923114E-009
 -0.21350000000000000          6.9854477757758104E-009
 -0.21299999999999999          7.4441128816715718E-009
 -0.21249999999999999          7.9373307926289272E-009
 -0.21199999999999999          8.4675058076300047E-009
 -0.21149999999999999          9.0369152161429156E-009
 -0.21099999999999999          9.6477066335864947E-009
 -0.21049999999999999          1.0301913100363436E-008
 -0.20999999999999999          1.1001489497175498E-008
 -0.20949999999999999          1.1748360506658173E-008
 -0.20899999999999999          1.2544477456799541E-008
 -0.20849999999999999          1.3391882269786493E-008
 -0.20799999999999999          1.4292770522672527E-008
 -0.20749999999999999          1.5249550955331870E-008
 -0.20699999999999999          1.6264896984807820E-008
 -0.20649999999999999          1.7341793778768988E-008
 -0.20599999999999999          1.8483568453575572E-008
 -0.20549999999999999          1.9693922936880881E-008
 -0.20499999999999999          2.0976951731199733E-008
 -0.20449999999999999          2.2337168559261045E-008
 -0.20399999999999999          2.3779508140364669E-008
 -0.20349999999999999          2.5309347506663471E-008
 -0.20299999999999999          2.6932513108590683E-008
 -0.20249999999999999          2.8655279038503068E-008
 -0.20199999999999999          3.0484358148896717E-008
 -0.20149999999999998          3.2426896723336540E-008
 -0.20099999999999998          3.4490440725676308E-008
 -0.20049999999999998          3.6682902049278709E-008
 -0.19999999999999998          3.9012544306160635E-008
 -0.19949999999999998          4.1487947299856387E-008
 -0.19899999999999998          4.4117982156421931E-008
 -0.19849999999999998          4.6911829088003287E-008
 -0.19799999999999998          4.9878991603691247E-008
 -0.19749999999999998          5.3029324931230803E-008
 -0.19699999999999998          5.6373110624008405E-008
 -0.19649999999999998          5.9921120509898174E-008
 -0.19600000000000001          6.3684694850962842E-008
 -0.19550000000000001          6.7675848924864113E-008
 -0.19500000000000001          7.1907280130290019E-008
 -0.19450000000000001          7.6392488779220002E-008
 -0.19400000000000001          8.1145763886070199E-008
 -0.19350000000000001          8.6182247116539656E-008
 -0.19300000000000000          9.1517918576755619E-008
 -0.19250000000000000          9.7169625234982959E-008
 -0.19200000000000000          1.0315508802705153E-007
 -0.19150000000000000          1.0949295869977504E-007
 -0.19100000000000000          1.1620284823266047E-007
 -0.19050000000000000          1.2330544052474579E-007
 -0.19000000000000000          1.3082254213259148E-007
 -0.18950000000000000          1.3877725280053710E-007
 -0.18900000000000000          1.4719408625296637E-007
 -0.18850000000000000          1.5609899151058926E-007
 -0.18800000000000000          1.6551952342069853E-007
 -0.18750000000000000          1.7548487107887922E-007
 -0.18700000000000000          1.8602590046157275E-007
 -0.18650000000000000          1.9717515442607692E-007
 -0.18600000000000000          2.0896688113225537E-007
 -0.18550000000000000          2.2143700562082813E-007
 -0.18500000000000000          2.3462320086764521E-007
 -0.18450000000000000          2.4856481672941300E-007
 -0.18400000000000000          2.6330303626309615E-007
 -0.18350000000000000          2.7888094678019115E-007
 -0.18300000000000000          2.9534362511185464E-007
 -0.18250000000000000          3.1273836498257879E-007
 -0.18200000000000000          3.3111479069702909E-007
 -0.18149999999999999          3.5052508451371978E-007
 -0.18099999999999999          3.7102404348843265E-007
 -0.18049999999999999          3.9266936369131145E-007
 -0.17999999999999999          4.1552164020686178E-007
 -0.17949999999999999          4.3964450924249832E-007
 -0.17899999999999999          4.6510493234563910E-007
 -0.17849999999999999          4.9197308271686779E-007
 -0.17799999999999999          5.2032265784873744E-007
 -0.17749999999999999          5.5023087952577043E-007
 -0.17699999999999999          5.8177874961984344E-007
 -0.17649999999999999          6.1505136272899108E-007
 -0.17599999999999999          6.5013796302082483E-007
 -0.17549999999999999          6.8713234213646501E-007
 -0.17499999999999999          7.2613295287737856E-007
 -0.17449999999999999          7.6724325026589213E-007
 -0.17399999999999999          8.1057180523202987E-007
 -0.17349999999999999          8.5623264567402657E-007
 -0.17299999999999999          9.0434537014516536E-007
 -0.17249999999999999          9.5503514785377774E-007
 -0.17199999999999999          1.0084332870974322E-006
 -0.17149999999999999          1.0646771215760964E-006
 -0.17099999999999999          1.1239102377658128E-006
 -0.17049999999999998          1.1862827022923739E-006
 -0.16999999999999998          1.2519514029918355E-006
 -0.16949999999999998          1.3210806173447054E-006
 -0.16899999999999998          1.3938420124759432E-006
 -0.16849999999999998          1.4704150999023113E-006
 -0.16799999999999998          1.5509876902797259E-006
 -0.16749999999999998          1.6357562344637699E-006
 -0.16699999999999998          1.7249265056307195E-006
 -0.16649999999999998          1.8187133719038684E-006
 -0.16599999999999998          1.9173419332219055E-006
 -0.16549999999999998          2.0210472939652391E-006
 -0.16499999999999998          2.1300750177033478E-006
 -0.16449999999999998          2.2446820366894826E-006
 -0.16399999999999998          2.3651368792343419E-006
 -0.16349999999999998          2.4917194423323963E-006
 -0.16299999999999998          2.6247221285302658E-006
 -0.16249999999999998          2.7644505280477460E-006
 -0.16199999999999998          2.9112236461514840E-006
 -0.16149999999999998          3.0653745852760039E-006
 -0.16099999999999998          3.2272514545184094E-006
 -0.16049999999999998          3.3972173696383834E-006
 -0.15999999999999998          3.5756515899265651E-006
 -0.15949999999999998          3.7629497455782257E-006
 -0.15899999999999997          3.9595247471879702E-006
 -0.15849999999999997          4.1658072404970881E-006
 -0.15799999999999997          4.3822460611409042E-006
 -0.15749999999999997          4.6093086893961299E-006
 -0.15699999999999997          4.8474830691702664E-006
 -0.15649999999999997          5.0972766985069029E-006
 -0.15599999999999997          5.3592184485751204E-006
 -0.15549999999999997          5.6338594731641933E-006
 -0.15499999999999997          5.9217736634309404E-006
 -0.15449999999999997          6.2235585573944263E-006
 -0.15399999999999997          6.5398367041780148E-006
 -0.15349999999999997          6.8712561187567189E-006
 -0.15299999999999997          7.2184916461992543E-006
 -0.15249999999999997          7.5822445069206879E-006
 -0.15200000000000000          7.9632454799138941E-006
 -0.15150000000000000          8.3622553574969061E-006
 -0.15100000000000000          8.7800644905655645E-006
 -0.15049999999999999          9.2174950623302720E-006
 -0.14999999999999999          9.6754010883159935E-006
 -0.14949999999999999          1.0154671144846361E-005
 -0.14899999999999999          1.0656228369043674E-005
 -0.14849999999999999          1.1181032277818304E-005
 -0.14799999999999999          1.1730081496352796E-005
 -0.14749999999999999          1.2304411029617768E-005
 -0.14699999999999999          1.2905095900350716E-005
 -0.14649999999999999          1.3533255696529523E-005
 -0.14599999999999999          1.4190049114404246E-005
 -0.14549999999999999          1.4876683053444140E-005
 -0.14499999999999999          1.5594407159369439E-005
 -0.14449999999999999          1.6344522009603679E-005
 -0.14399999999999999          1.7128371837316081E-005
 -0.14349999999999999          1.7947353626368567E-005
 -0.14299999999999999          1.8802917111315764E-005
 -0.14249999999999999          1.9696562958415598E-005
 -0.14199999999999999          2.0629851860576309E-005
 -0.14149999999999999          2.1604395442409441E-005
 -0.14099999999999999          2.2621868993155658E-005
 -0.14049999999999999          2.3684004190727137E-005
 -0.13999999999999999          2.4792596377665177E-005
 -0.13949999999999999          2.5949508199119009E-005
 -0.13899999999999998          2.7156662326888181E-005
 -0.13849999999999998          2.8416054192348383E-005
 -0.13799999999999998          2.9729750167462043E-005
 -0.13749999999999998          3.1099887564778328E-005
 -0.13699999999999998          3.2528678275411949E-005
 -0.13649999999999998          3.4018412407021970E-005
 -0.13599999999999998          3.5571451007854193E-005
 -0.13550000000000001          3.7190242437645793E-005
 -0.13500000000000001          3.8877318729646504E-005
 -0.13450000000000001          4.0635291952639818E-005
 -0.13400000000000001          4.2466868762858212E-005
 -0.13350000000000001          4.4374843128025532E-005
 -0.13300000000000001          4.6362099965335801E-005
 -0.13250000000000001          4.8431626055389643E-005
 -0.13200000000000001          5.0586495490279049E-005
 -0.13150000000000001          5.2829891501460224E-005
 -0.13100000000000001          5.5165095545817167E-005
 -0.13050000000000000          5.7595498219598085E-005
 -0.13000000000000000          6.0124595620436594E-005
 -0.12950000000000000          6.2755992985330522E-005
 -0.12900000000000000          6.5493419242557138E-005
 -0.12850000000000000          6.8340705183800310E-005
 -0.12800000000000000          7.1301816205959767E-005
 -0.12750000000000000          7.4380819569341838E-005
 -0.12700000000000000          7.7581913501489908E-005
 -0.12650000000000000          8.0909434473142028E-005
 -0.12600000000000000          8.4367842646315694E-005
 -0.12550000000000000          8.7961743702180684E-005
 -0.12499999999999999          9.1695859737228602E-005
 -0.12449999999999999          9.5575065643060952E-005
 -0.12399999999999999          9.9604381830431521E-005
 -0.12349999999999998          1.0378896695328876E-004
 -0.12299999999999998          1.0813413246069103E-004
 -0.12249999999999998          1.1264533532084897E-004
 -0.12199999999999998          1.1732819257304072E-004
 -0.12149999999999998          1.2218845949973911E-004
 -0.12099999999999998          1.2723208055831492E-004
 -0.12049999999999998          1.3246513844933361E-004
 -0.12000000000000000          1.3789389049634337E-004
 -0.11950000000000000          1.4352478319779038E-004
 -0.11899999999999999          1.4936443767510355E-004
 -0.11849999999999999          1.5541963512077928E-004
 -0.11799999999999999          1.6169737500604242E-004
 -0.11749999999999999          1.6820478776935488E-004
 -0.11699999999999999          1.7494919302407652E-004
 -0.11649999999999999          1.8193812866229564E-004
 -0.11599999999999999          1.8917930719908327E-004
 -0.11549999999999999          1.9668061577249318E-004
 -0.11499999999999999          2.0445017435122281E-004
 -0.11449999999999999          2.1249629207886755E-004
 -0.11399999999999999          2.2082748182583600E-004
 -0.11349999999999999          2.2945244563743472E-004
 -0.11299999999999999          2.3838011838961393E-004
 -0.11249999999999999          2.4761960958130658E-004
 -0.11199999999999999          2.5718030519783497E-004
 -0.11149999999999999          2.6707176584750414E-004
 -0.11099999999999999          2.7730379952117801E-004
 -0.11049999999999999          2.8788635972887278E-004
 -0.10999999999999999          2.9882972012273967E-004
 -0.10949999999999999          3.1014432897791266E-004
 -0.10899999999999999          3.2184083829633892E-004
 -0.10849999999999999          3.3393019111827016E-004
 -0.10799999999999998          3.4642350510694087E-004
 -0.10749999999999998          3.5933215986005962E-004
 -0.10699999999999998          3.7266776780597866E-004
 -0.10649999999999998          3.8644214509986341E-004
 -0.10599999999999998          4.0066739893518388E-004
 -0.10549999999999998          4.1535586933605373E-004
 -0.10499999999999998          4.3052010005339980E-004
 -0.10449999999999998          4.4617292587645352E-004
 -0.10399999999999998          4.6232738532125950E-004
 -0.10349999999999998          4.7899674973450601E-004
 -0.10299999999999998          4.9619452329352498E-004
 -0.10249999999999998          5.1393447211012244E-004
 -0.10199999999999998          5.3223065333440900E-004
 -0.10149999999999998          5.5109726963564754E-004
 -0.10099999999999998          5.7054875651374459E-004
 -0.10049999999999998          5.9059978229925036E-004
  -9.9999999999999978E-002     6.1126542277634144E-004
  -9.9499999999999977E-002     6.3256075372919440E-004
  -9.8999999999999977E-002     6.5450125839561224E-004
  -9.8499999999999976E-002     6.7710259463638067E-004
  -9.7999999999999976E-002     7.0038065314292908E-004
  -9.7499999999999976E-002     7.2435161564499140E-004
  -9.6999999999999975E-002     7.4903178028762341E-004
  -9.6499999999999975E-002     7.7443767804652452E-004
  -9.5999999999999974E-002     8.0058618914335966E-004
  -9.5500000000000002E-002     8.2749431021511555E-004
  -9.5000000000000001E-002     8.5517915431410074E-004
  -9.4500000000000001E-002     8.8365818373858929E-004
  -9.4000000000000000E-002     9.1294886078685522E-004
  -9.3500000000000000E-002     9.4306905521079898E-004
  -9.2999999999999999E-002     9.7403675317764282E-004
  -9.2499999999999999E-002     1.0058700572699308E-003
  -9.1999999999999998E-002     1.0385871864855289E-003
  -9.1499999999999998E-002     1.0722068836912513E-003
  -9.0999999999999998E-002     1.1067476589232683E-003
  -9.0499999999999997E-002     1.1422286042943597E-003
  -8.9999999999999997E-002     1.1786685790866613E-003
  -8.9499999999999996E-002     1.2160866754129529E-003
  -8.8999999999999996E-002     1.2545019853860140E-003
  -8.8499999999999995E-002     1.2939340667799115E-003
  -8.7999999999999995E-002     1.3344022445380688E-003
  -8.7499999999999994E-002     1.3759260764345527E-003
  -8.6999999999999994E-002     1.4185251202434301E-003
  -8.6499999999999994E-002     1.4622191665694118E-003
  -8.5999999999999993E-002     1.5070277731865644E-003
  -8.5499999999999993E-002     1.5529707306995988E-003
  -8.4999999999999992E-002     1.6000679461285472E-003
  -8.4499999999999992E-002     1.6483393264934421E-003
  -8.3999999999999991E-002     1.6978047788143158E-003
  -8.3499999999999991E-002     1.7484843265265226E-003
  -8.2999999999999990E-002     1.8003976438194513E-003
  -8.2499999999999990E-002     1.8535646377131343E-003
  -8.1999999999999990E-002     1.9080049823969603E-003
  -8.1499999999999989E-002     1.9637383520603180E-003
  -8.0999999999999989E-002     2.0207839552313089E-003
  -8.0499999999999988E-002     2.0791615825146437E-003
  -7.9999999999999988E-002     2.1388905588537455E-003
  -7.9499999999999987E-002     2.1999897435307503E-003
  -7.8999999999999987E-002     2.2624779958277941E-003
  -7.8499999999999986E-002     2.3263744078576565E-003
  -7.7999999999999986E-002     2.3916973732411861E-003
  -7.7499999999999986E-002     2.4584655184298754E-003
  -7.6999999999999985E-002     2.5266967713832855E-003
  -7.6499999999999985E-002     2.5964092928916216E-003
  -7.5999999999999984E-002     2.6676203124225140E-003
  -7.5499999999999984E-002     2.7403472922742367E-003
  -7.4999999999999983E-002     2.8146067634224892E-003
  -7.4499999999999983E-002     2.8904154896736145E-003
  -7.3999999999999982E-002     2.9677893035113811E-003
  -7.3499999999999982E-002     3.0467440374195576E-003
  -7.2999999999999982E-002     3.1272943597286940E-003
  -7.2499999999999981E-002     3.2094549387693405E-003
  -7.1999999999999981E-002     3.2932402100414038E-003
  -7.1499999999999980E-002     3.3786636777222157E-003
  -7.0999999999999980E-002     3.4657379146665335E-003
  -7.0499999999999979E-002     3.5544754937291145E-003
  -6.9999999999999979E-002     3.6448880564421415E-003
  -6.9499999999999978E-002     3.7369867786765099E-003
  -6.8999999999999978E-002     3.8307821378111839E-003
  -6.8499999999999978E-002     3.9262846112251282E-003
  -6.7999999999999977E-002     4.0235021151602268E-003
  -6.7499999999999977E-002     4.1224439628422260E-003
  -6.6999999999999976E-002     4.2231171391904354E-003
  -6.6499999999999976E-002     4.3255286291241646E-003
  -6.5999999999999975E-002     4.4296830892562866E-003
  -6.5499999999999975E-002     4.5355851761996746E-003
  -6.4999999999999974E-002     4.6432381495833397E-003
  -6.4499999999999974E-002     4.7526448033750057E-003
  -6.4000000000000001E-002     4.8638060688972473E-003
  -6.3500000000000001E-002     4.9767228774726391E-003
  -6.3000000000000000E-002     5.0913942977786064E-003
  -6.2500000000000000E-002     5.2078193984925747E-003
  -6.2000000000000000E-002     5.3259949199855328E-003
  -6.1499999999999999E-002     5.4459171369671822E-003
  -6.0999999999999999E-002     5.5675813928246498E-003
  -6.0499999999999998E-002     5.6909816339612007E-003
  -5.9999999999999998E-002     5.8161094784736633E-003
  -5.9499999999999997E-002     5.9429556131362915E-003
  -5.8999999999999997E-002     6.0715093277394772E-003
  -5.8499999999999996E-002     6.2017580494284630E-003
  -5.7999999999999996E-002     6.3336878083646297E-003
  -5.7499999999999996E-002     6.4672837033867836E-003
  -5.6999999999999995E-002     6.6025289706885815E-003
  -5.6499999999999995E-002     6.7394049838185310E-003
  -5.5999999999999994E-002     6.8778921850025654E-003
  -5.5499999999999994E-002     7.0179691538214684E-003
  -5.4999999999999993E-002     7.1596135385334492E-003
  -5.4499999999999993E-002     7.3028001934289932E-003
  -5.3999999999999992E-002     7.4475035071372986E-003
  -5.3499999999999992E-002     7.5936950743198395E-003
  -5.2999999999999992E-002     7.7413446269929409E-003
  -5.2499999999999991E-002     7.8904200345277786E-003
  -5.1999999999999991E-002     8.0408873036503792E-003
  -5.1499999999999990E-002     8.1927115097641945E-003
  -5.0999999999999990E-002     8.3458544686436653E-003
  -5.0499999999999989E-002     8.5002770647406578E-003
  -4.9999999999999989E-002     8.6559355258941650E-003
  -4.9499999999999988E-002     8.8127879425883293E-003
  -4.8999999999999988E-002     8.9707877486944199E-003
  -4.8499999999999988E-002     9.1298883780837059E-003
  -4.7999999999999987E-002     9.2900395393371582E-003
  -4.7499999999999987E-002     9.4511900097131729E-003
  -4.6999999999999986E-002     9.6132867038249969E-003
  -4.6499999999999986E-002     9.7762728109955788E-003
  -4.5999999999999985E-002     9.9400905892252922E-003
  -4.5499999999999985E-002     1.0104679502546787E-002
  -4.4999999999999984E-002     1.0269976221024990E-002
  -4.4499999999999984E-002     1.0435916483402252E-002
  -4.3999999999999984E-002     1.0602433234453201E-002
  -4.3499999999999983E-002     1.0769456624984741E-002
  -4.2999999999999983E-002     1.0936914011836052E-002
  -4.2499999999999982E-002     1.1104732751846313E-002
  -4.1999999999999982E-002     1.1272837407886982E-002
  -4.1499999999999981E-002     1.1441148817539215E-002
  -4.0999999999999981E-002     1.1609587818384171E-002
  -4.0499999999999980E-002     1.1778071522712708E-002
  -3.9999999999999980E-002     1.1946514248847961E-002
  -3.9499999999999980E-002     1.2114829383790493E-002
  -3.8999999999999979E-002     1.2282926589250565E-002
  -3.8499999999999979E-002     1.2450715526938438E-002
  -3.7999999999999978E-002     1.2618102133274078E-002
  -3.7499999999999978E-002     1.2784989550709724E-002
  -3.6999999999999977E-002     1.2951278127729893E-002
  -3.6499999999999977E-002     1.3116868212819099E-002
  -3.5999999999999976E-002     1.3281658291816711E-002
  -3.5499999999999976E-002     1.3445543125271797E-002
  -3.4999999999999976E-002     1.3608416542410851E-002
  -3.4499999999999975E-002     1.3770170509815216E-002
  -3.3999999999999975E-002     1.3930693268775940E-002
  -3.3499999999999974E-002     1.4089871197938919E-002
  -3.2999999999999974E-002     1.4247590675950050E-002
  -3.2499999999999973E-002     1.4403733424842358E-002
  -3.1999999999999973E-002     1.4558179304003716E-002
  -3.1500000000000000E-002     1.4710808172821999E-002
  -3.1000000000000000E-002     1.4861498028039932E-002
  -3.0499999999999999E-002     1.5010123141109943E-002
  -2.9999999999999999E-002     1.5156558714807034E-002
  -2.9499999999999998E-002     1.5300677157938480E-002
  -2.8999999999999998E-002     1.5442349947988987E-002
  -2.8499999999999998E-002     1.5581448562443256E-002
  -2.7999999999999997E-002     1.5717841684818268E-002
  -2.7499999999999997E-002     1.5851393342018127E-002
  -2.6999999999999996E-002     1.5981972217559814E-002
  -2.6499999999999996E-002     1.6109440475702286E-002
  -2.5999999999999995E-002     1.6233660280704498E-002
  -2.5499999999999995E-002     1.6354493796825409E-002
  -2.4999999999999994E-002     1.6471799463033676E-002
  -2.4499999999999994E-002     1.6585437580943108E-002
  -2.3999999999999994E-002     1.6695264726877213E-002
  -2.3499999999999993E-002     1.6801139339804649E-002
  -2.2999999999999993E-002     1.6902916133403778E-002
  -2.2499999999999992E-002     1.7000453546643257E-002
  -2.1999999999999992E-002     1.7093606293201447E-002
  -2.1499999999999991E-002     1.7182232812047005E-002
  -2.0999999999999991E-002     1.7266191542148590E-002
  -2.0499999999999990E-002     1.7345337197184563E-002
  -1.9999999999999990E-002     1.7419528216123581E-002
  -1.9499999999999990E-002     1.7488617449998856E-002
  -1.8999999999999989E-002     1.7552461475133896E-002
  -1.8499999999999989E-002     1.7610915005207062E-002
  -1.7999999999999988E-002     1.7663832753896713E-002
  -1.7499999999999988E-002     1.7711073160171509E-002
  -1.6999999999999987E-002     1.7752489075064659E-002
  -1.6499999999999987E-002     1.7787940800189972E-002
  -1.5999999999999986E-002     1.7817284911870956E-002
  -1.5499999999999986E-002     1.7840381711721420E-002
  -1.4999999999999986E-002     1.7857093364000320E-002
  -1.4499999999999985E-002     1.7867282032966614E-002
  -1.3999999999999985E-002     1.7870811745524406E-002
  -1.3499999999999984E-002     1.7867548391222954E-002
  -1.2999999999999984E-002     1.7857359722256660E-002
  -1.2499999999999983E-002     1.7840111628174782E-002
  -1.1999999999999983E-002     1.7815677449107170E-002
  -1.1499999999999982E-002     1.7783926799893379E-002
  -1.0999999999999982E-002     1.7744733020663261E-002
  -1.0499999999999982E-002     1.7697969451546669E-002
  -9.9999999999999811E-003     1.7643518745899200E-002
  -9.4999999999999807E-003     1.7581259831786156E-002
  -8.9999999999999802E-003     1.7511080950498581E-002
  -8.4999999999999798E-003     1.7432868480682373E-002
  -7.9999999999999793E-003     1.7346516251564026E-002
  -7.4999999999999789E-003     1.7251918092370033E-002
  -6.9999999999999785E-003     1.7148971557617188E-002
  -6.4999999999999780E-003     1.7037576064467430E-002
  -5.9999999999999776E-003     1.6917636618018150E-002
  -5.4999999999999771E-003     1.6789060086011887E-002
  -4.9999999999999767E-003     1.6651757061481476E-002
  -4.4999999999999762E-003     1.6505640000104904E-002
  -3.9999999999999758E-003     1.6350628808140755E-002
  -3.4999999999999754E-003     1.6186643391847610E-002
  -2.9999999999999749E-003     1.6013614833354950E-002
  -2.4999999999999745E-003     1.5831474214792252E-002
  -1.9999999999999740E-003     1.5640161931514740E-002
  -1.4999999999999736E-003     1.5439619310200214E-002
  -9.9999999999997313E-004     1.5229796059429646E-002
  -4.9999999999997269E-004     1.5010644681751728E-002
   0.0000000000000000          1.4782124198973179E-002
   5.0000000000000044E-004     1.4544195495545864E-002
   1.0000000000000009E-003     1.4296827837824821E-002
   1.5000000000000013E-003     1.4039990492165089E-002
   2.0000000000000018E-003     1.3773661106824875E-002
   2.5000000000000022E-003     1.3497823849320412E-002
   3.0000000000000027E-003     1.3212470337748528E-002
   3.5000000000000031E-003     1.2917594984173775E-002
   4.0000000000000036E-003     1.2613201513886452E-002
   4.5000000000000040E-003     1.2299300171434879E-002
   5.0000000000000044E-003     1.1975906789302826E-002
   5.5000000000000049E-003     1.1643044650554657E-002
   6.0000000000000053E-003     1.1300741694867611E-002
   6.5000000000000058E-003     1.0949031449854374E-002
   7.0000000000000062E-003     1.0587952099740505E-002
   7.5000000000000067E-003     1.0217549279332161E-002
   8.0000000000000071E-003     9.8378760740160942E-003
   8.5000000000000075E-003     9.4489902257919312E-003
   9.0000000000000080E-003     9.0509569272398949E-003
   9.5000000000000084E-003     8.6438488215208054E-003
   1.0000000000000009E-002     8.2277478650212288E-003
   1.0500000000000009E-002     7.8027425333857536E-003
   1.1000000000000010E-002     7.3689292185008526E-003
   1.1500000000000010E-002     6.9264099001884460E-003
   1.2000000000000011E-002     6.4752949401736259E-003
   1.2500000000000011E-002     6.0156998224556446E-003
   1.3000000000000012E-002     5.5477460846304893E-003
   1.3500000000000012E-002     5.0715617835521698E-003
   1.4000000000000012E-002     4.5872805640101433E-003
   1.4500000000000013E-002     4.0950444526970387E-003
   1.5000000000000013E-002     3.5950026940554380E-003
   1.5500000000000014E-002     3.0873098876327276E-003
   1.6000000000000014E-002     2.5721287820488214E-003
   1.6500000000000015E-002     2.0496298093348742E-003
   1.7000000000000015E-002     1.5199908521026373E-003
   1.7500000000000016E-002     9.8339759279042482E-004
   1.8000000000000016E-002     4.4004162191413343E-004
   1.8500000000000016E-002    -1.0987778659909964E-004
   1.9000000000000017E-002    -6.6615577088668942E-004
   1.9500000000000017E-002    -1.2285821139812469E-003
   2.0000000000000018E-002    -1.7969411564990878E-003
   2.0500000000000018E-002    -2.3710120003670454E-003
   2.1000000000000019E-002    -2.9505679849535227E-003
   2.1500000000000019E-002    -3.5353761631995440E-003
   2.2000000000000020E-002    -4.1251964867115021E-003
   2.2500000000000020E-002    -4.7197821550071239E-003
   2.3000000000000020E-002    -5.3188800811767578E-003
   2.3500000000000021E-002    -5.9222304262220860E-003
   2.4000000000000021E-002    -6.5295677632093430E-003
   2.4500000000000022E-002    -7.1406215429306030E-003
   2.5000000000000022E-002    -7.7551165595650673E-003
   2.5500000000000023E-002    -8.3727724850177765E-003
   2.6000000000000023E-002    -8.9933061972260475E-003
   2.6500000000000024E-002    -9.6164289861917496E-003
   2.7000000000000024E-002    -1.0241850279271603E-002
   2.7500000000000024E-002    -1.0869273915886879E-002
   2.8000000000000025E-002    -1.1498401872813702E-002
   2.8500000000000025E-002    -1.2128927744925022E-002
   2.9000000000000026E-002    -1.2760544195771217E-002
   2.9500000000000026E-002    -1.3392937369644642E-002
   3.0000000000000027E-002    -1.4025788754224777E-002
   3.0500000000000027E-002    -1.4658777043223381E-002
   3.1000000000000028E-002    -1.5291576273739338E-002
   3.1500000000000028E-002    -1.5923861414194107E-002
   3.2000000000000028E-002    -1.6555299982428551E-002