 -0.23999999999999999          0.0000000000000000     
 -0.23949999999999999          1.2926484487252310E-006
 -0.23899999999999999          3.8177427086338867E-006
 -0.23849999999999999          7.3735382102313451E-006
 -0.23799999999999999          1.1639601325441618E-005
 -0.23749999999999999          1.6212630725931376E-005
 -0.23699999999999999          2.0650708393077366E-005
 -0.23649999999999999          2.4520531951566227E-005
 -0.23599999999999999          2.7442276405054145E-005
 -0.23549999999999999          2.9127188099664636E-005
 -0.23499999999999999          2.9404292945400812E-005
 -0.23449999999999999          2.8234315323061310E-005
 -0.23399999999999999          2.5710254703881219E-005
 -0.23349999999999999          2.2045835066819564E-005
 -0.23299999999999998          1.7553738871356472E-005
 -0.23249999999999998          1.2616377716767602E-005
 -0.23199999999999998          7.6528085628524423E-006
 -0.23149999999999998          3.0841824809613172E-006
 -0.23099999999999998         -6.9976800887161517E-007
 -0.23049999999999998         -3.3700557651172858E-006
 -0.22999999999999998         -4.6830286919430364E-006
 -0.22949999999999998         -4.4981989049119875E-006
 -0.22899999999999998         -2.7875209980265936E-006
 -0.22849999999999998          3.6230463251740730E-007
 -0.22799999999999998          4.7582698243786581E-006
 -0.22749999999999998          1.0116270459548105E-005
 -0.22699999999999998          1.6085477909655310E-005
 -0.22649999999999998          2.2277097741607577E-005
 -0.22599999999999998          2.8298565666773356E-005
 -0.22549999999999998          3.3787197025958449E-005
 -0.22499999999999998          3.8441248761955649E-005
 -0.22449999999999998          4.2046289308927953E-005
 -0.22399999999999998          4.4490840082289651E-005
 -0.22349999999999998          4.5775079343002290E-005
 -0.22299999999999998          4.6005334297660738E-005
 -0.22249999999999998          4.5380395022220910E-005
 -0.22199999999999998          4.4171778426971287E-005
 -0.22150000000000000          4.2693780414992943E-005
 -0.22100000000000000          4.1279199649579823E-005
 -0.22050000000000000          4.0249200537800789E-005
 -0.22000000000000000          3.9893977373139933E-005
 -0.21950000000000000          4.0454586269333959E-005
 -0.21900000000000000          4.2112114897463471E-005
 -0.21850000000000000          4.4985652493778616E-005
 -0.21800000000000000          4.9130183469969779E-005
 -0.21750000000000000          5.4542291763937101E-005
 -0.21700000000000000          6.1162652855273336E-005
 -0.21650000000000000          6.8885674409102648E-005
 -0.21600000000000000          7.7562493970617652E-005
 -0.21550000000000000          8.7010732386261225E-005
 -0.21500000000000000          9.7020376415457577E-005
 -0.21450000000000000          1.0736467083916068E-004
 -0.21400000000000000          1.1781663488363847E-004
 -0.21350000000000000          1.2816039088647813E-004
 -0.21299999999999999          1.3821116590406746E-004
 -0.21249999999999999          1.4782907965127379E-004
 -0.21199999999999999          1.5693613386247307E-004
 -0.21149999999999999          1.6552548913750798E-004
 -0.21099999999999999          1.7366294923704118E-004
 -0.21049999999999999          1.8148202798329294E-004
 -0.20999999999999999          1.8917795387096703E-004
 -0.20949999999999999          1.9698288815561682E-004
 -0.20899999999999999          2.0515134383458644E-004
 -0.20849999999999999          2.1393307542894036E-004
 -0.20799999999999999          2.2356760746333748E-004
 -0.20749999999999999          2.3426437110174447E-004
 -0.20699999999999999          2.4619919713586569E-004
 -0.20649999999999999          2.5951486895792186E-004
 -0.20599999999999999          2.7431856142356992E-004
 -0.20549999999999999          2.9070358141325414E-004
 -0.20499999999999999          3.0874117510393262E-004
 -0.20449999999999999          3.2849458511918783E-004
 -0.20399999999999999          3.5000289790332317E-004
 -0.20349999999999999          3.7330464692786336E-004
 -0.20299999999999999          3.9840082172304392E-004
 -0.20249999999999999          4.2525972821749747E-004
 -0.20199999999999999          4.5383296674117446E-004
 -0.20149999999999998          4.8400970990769565E-004
 -0.20099999999999998          5.1568011986091733E-004
 -0.20049999999999998          5.4872257169336081E-004
 -0.19999999999999998          5.8302871184423566E-004
 -0.19949999999999998          6.1853608349338174E-004
 -0.19899999999999998          6.5525528043508530E-004
 -0.19849999999999998          6.9325283402577043E-004
 -0.19799999999999998          7.3268695268779993E-004
 -0.19749999999999998          7.7380560105666518E-004
 -0.19699999999999998          8.1690226215869188E-004
 -0.19649999999999998          8.6228601867333055E-004
 -0.19600000000000001          9.1027037706226110E-004
 -0.19550000000000001          9.6113659674301744E-004
 -0.19500000000000001          1.0150907328352332E-003
 -0.19450000000000001          1.0722782462835312E-003
 -0.19400000000000001          1.1328319087624550E-003
 -0.19350000000000001          1.1967547470703721E-003
 -0.19300000000000000          1.2641453649848700E-003
 -0.19250000000000000          1.3350427616387606E-003
 -0.19200000000000000          1.4096052618697286E-003
 -0.19150000000000000          1.4880838571116328E-003
 -0.19100000000000000          1.5707595739513636E-003
 -0.19050000000000000          1.6580837545916438E-003
 -0.19000000000000000          1.7504860879853368E-003
 -0.18950000000000000          1.8484255997464061E-003
 -0.18900000000000000          1.9523045048117638E-003
 -0.18850000000000000          2.0624978933483362E-003
 -0.18800000000000000          2.1792517509311438E-003
 -0.18750000000000000          2.3027008865028620E-003
 -0.18700000000000000          2.4329097941517830E-003
 -0.18650000000000000          2.5699019897729158E-003
 -0.18600000000000000          2.7136325370520353E-003
 -0.18550000000000000          2.8642222750931978E-003
 -0.18500000000000000          3.0217065941542387E-003
 -0.18450000000000000          3.1864254269748926E-003
 -0.18400000000000000          3.3587105572223663E-003
 -0.18350000000000000          3.5391324199736118E-003
 -0.18300000000000000          3.7282612174749374E-003
 -0.18250000000000000          3.9267963729798794E-003
 -0.18200000000000000          4.1354098357260227E-003
 -0.18149999999999999          4.3547339737415314E-003
 -0.18099999999999999          4.5853508636355400E-003
 -0.18049999999999999          4.8277494497597218E-003
 -0.17999999999999999          5.0825304351747036E-003
 -0.17949999999999999          5.3501320071518421E-003
 -0.17899999999999999          5.6309211067855358E-003
 -0.17849999999999999          5.9256008826196194E-003
 -0.17799999999999999          6.2345773912966251E-003
 -0.17749999999999999          6.5587256103754044E-003
 -0.17699999999999999          6.8989209830760956E-003
 -0.17649999999999999          7.2560459375381470E-003
 -0.17599999999999999          7.6310457661747932E-003
 -0.17549999999999999          8.0249523743987083E-003
 -0.17499999999999999          8.4386626258492470E-003
 -0.17449999999999999          8.8731162250041962E-003
 -0.17399999999999999          9.3291392549872398E-003
 -0.17349999999999999          9.8073733970522881E-003
 -0.17299999999999999          1.0308514349162579E-002
 -0.17249999999999999          1.0833358392119408E-002
 -0.17199999999999999          1.1382607743144035E-002
 -0.17149999999999999          1.1956998147070408E-002
 -0.17099999999999999          1.2557483278214931E-002
 -0.17049999999999998          1.3185357674956322E-002
 -0.16999999999999998          1.3841873034834862E-002
 -0.16949999999999998          1.4528498053550720E-002
 -0.16899999999999998          1.5246654860675335E-002
 -0.16849999999999998          1.5997935086488724E-002
 -0.16799999999999998          1.6784170642495155E-002
 -0.16749999999999998          1.7606481909751892E-002
 -0.16699999999999998          1.8466716632246971E-002
 -0.16649999999999998          1.9366528838872910E-002
 -0.16599999999999998          2.0307060331106186E-002
 -0.16549999999999998          2.1290060132741928E-002
 -0.16499999999999998          2.2317497059702873E-002
 -0.16449999999999998          2.3390498012304306E-002
 -0.16399999999999998          2.4510778486728668E-002
 -0.16349999999999998          2.5680903345346451E-002
 -0.16299999999999998          2.6902902871370316E-002
 -0.16249999999999998          2.8178840875625610E-002
 -0.16199999999999998          2.9511464759707451E-002
 -0.16149999999999998          3.0903434380888939E-002
 -0.16099999999999998          3.2356463372707367E-002
 -0.16049999999999998          3.3873245120048523E-002
 -0.15999999999999998          3.5456057637929916E-002
 -0.15949999999999998          3.7107244133949280E-002
 -0.15899999999999997          3.8829620927572250E-002
 -0.15849999999999997          4.0625181049108505E-002
 -0.15799999999999997          4.2496182024478912E-002
 -0.15749999999999997          4.4445931911468506E-002
 -0.15699999999999997          4.6476993709802628E-002
 -0.15649999999999997          4.8592932522296906E-002
 -0.15599999999999997          5.0797056406736374E-002
 -0.15549999999999997          5.3092557936906815E-002
 -0.15499999999999997          5.5483680218458176E-002
 -0.15449999999999997          5.7972617447376251E-002
 -0.15399999999999997          6.0565054416656494E-002
 -0.15349999999999997          6.3263490796089172E-002
 -0.15299999999999997          6.6070869565010071E-002
 -0.15249999999999997          6.8993240594863892E-002
 -0.15200000000000000          7.2033368051052094E-002
 -0.15150000000000000          7.5195990502834320E-002
 -0.15100000000000000          7.8483864665031433E-002
 -0.15049999999999999          8.1902742385864258E-002
 -0.14999999999999999          8.5456117987632751E-002
 -0.14949999999999999          8.9149616658687592E-002
 -0.14899999999999999          9.2989861965179443E-002
 -0.14849999999999999          9.6978738903999329E-002
 -0.14799999999999999         0.10112111270427704     
 -0.14749999999999999         0.10542448610067368     
 -0.14699999999999999         0.10989536345005035     
 -0.14649999999999999         0.11453873664140701     
 -0.14599999999999999         0.11935948580503464     
 -0.14549999999999999         0.12436398863792419     
 -0.14499999999999999         0.12955673038959503     
 -0.14449999999999999         0.13494198024272919     
 -0.14399999999999999         0.14053048193454742     
 -0.14349999999999999         0.14632448554039001     
 -0.14299999999999999         0.15233522653579712     
 -0.14249999999999999         0.15856647491455078     
 -0.14199999999999999         0.16502298414707184     
 -0.14149999999999999         0.17171573638916016     
 -0.14099999999999999         0.17864772677421570     
 -0.14049999999999999         0.18583098053932190     
 -0.13999999999999999         0.19327147305011749     
 -0.13949999999999999         0.20097447931766510     
 -0.13899999999999998         0.20895221829414368     
 -0.13849999999999998         0.21721397340297699     
 -0.13799999999999998         0.22576497495174408     
 -0.13749999999999998         0.23461297154426575     
 -0.13699999999999998         0.24376396834850311     
 -0.13649999999999998         0.25322598218917847     
 -0.13599999999999998         0.26301297545433044     
 -0.13550000000000001         0.27313145995140076     
 -0.13500000000000001         0.28359547257423401     
 -0.13450000000000001         0.29441046714782715     
 -0.13400000000000001         0.30558747053146362     
 -0.13350000000000001         0.31713646650314331     
 -0.13300000000000001         0.32906696200370789     
 -0.13250000000000001         0.34138146042823792     
 -0.13200000000000001         0.35410246253013611     
 -0.13150000000000001         0.36723697185516357     
 -0.13100000000000001         0.38079196214675903     
 -0.13050000000000000         0.39478194713592529     
 -0.13000000000000000         0.40921494364738464     
 -0.12950000000000000         0.42409694194793701     
 -0.12900000000000000         0.43944296240806580     
 -0.12850000000000000         0.45527195930480957     
 -0.12800000000000000         0.47157695889472961     
 -0.12750000000000000         0.48838394880294800     
 -0.12700000000000000         0.50569993257522583     
 -0.12650000000000000         0.52355694770812988     
 -0.12600000000000000         0.54194796085357666     
 -0.12550000000000000         0.56087595224380493     
 -0.12499999999999999         0.58037090301513672     
 -0.12449999999999999         0.60043990612030029     
 -0.12399999999999999         0.62107795476913452     
 -0.12349999999999998         0.64232093095779419     
 -0.12299999999999998         0.66414994001388550     
 -0.12249999999999998         0.68659591674804688     
 -0.12199999999999998         0.70966392755508423     
 -0.12149999999999998         0.73338192701339722     
 -0.12099999999999998         0.75775790214538574     
 -0.12049999999999998         0.78280991315841675     
 -0.12000000000000000         0.80855989456176758     
 -0.11950000000000000         0.83503389358520508     
 -0.11899999999999999         0.86221587657928467     
 -0.11849999999999999         0.89009988307952881     
 -0.11799999999999999         0.91869789361953735     
 -0.11749999999999999         0.94801586866378784     
 -0.11699999999999999         0.97810786962509155     
 -0.11649999999999999          1.0089539289474487     
 -0.11599999999999999          1.0405678749084473     
 -0.11549999999999999          1.0729779005050659     
 -0.11499999999999999          1.1062139272689819     
 -0.11449999999999999          1.1402478218078613     
 -0.11399999999999999          1.1751319169998169     
 -0.11349999999999999          1.2107958793640137     
 -0.11299999999999999          1.2473359107971191     
 -0.11249999999999999          1.2847878932952881     
 -0.11199999999999999          1.3230798244476318     
 -0.11149999999999999          1.3622357845306396     
 -0.11099999999999999          1.4022158384323120     
 -0.11049999999999999          1.4431638717651367     
 -0.10999999999999999          1.4849758148193359     
 -0.10949999999999999          1.5276597738265991     
 -0.10899999999999999          1.5712958574295044     
 -0.10849999999999999          1.6158478260040283     
 -0.10799999999999998          1.6613677740097046     
 -0.10749999999999998          1.7077877521514893     
 -0.10699999999999998          1.7551558017730713     
 -0.10649999999999998          1.8035037517547607     
 -0.10599999999999998          1.8527997732162476     
 -0.10549999999999998          1.9031038284301758     
 -0.10499999999999998          1.9543278217315674     
 -0.10449999999999998          2.0065677165985107     
 -0.10399999999999998          2.0596718788146973     
 -0.10349999999999998          2.1137197017669678     
 -0.10299999999999998          2.1687517166137695     
 -0.10249999999999998          2.2247757911682129     
 -0.10199999999999998          2.2816717624664307     
 -0.10149999999999998          2.3395357131958008     
 -0.10099999999999998          2.3983676433563232     
 -0.10049999999999998          2.4581756591796875     
  -9.9999999999999978E-002     2.5189116001129150     
  -9.9499999999999977E-002     2.5806956291198730     
  -9.8999999999999977E-002     2.6433196067810059     
  -9.8499999999999976E-002     2.7069277763366699     
  -9.7999999999999976E-002     2.7714476585388184     
  -9.7499999999999976E-002     2.8368556499481201     
  -9.6999999999999975E-002     2.9031195640563965     
  -9.6499999999999975E-002     2.9703116416931152     
  -9.5999999999999974E-002     3.0382556915283203     
  -9.5500000000000002E-002     3.1070957183837891     
  -9.5000000000000001E-002     3.1766235828399658     
  -9.4500000000000001E-002     3.2467675209045410     
  -9.4000000000000000E-002     3.3179996013641357     
  -9.3500000000000000E-002     3.3897914886474609     
  -9.2999999999999999E-002     3.4624316692352295     
  -9.2499999999999999E-002     3.5357275009155273     
  -9.1999999999999998E-002     3.6099514961242676     
  -9.1499999999999998E-002     3.6847674846649170     
  -9.0999999999999998E-002     3.7602875232696533     
  -9.0499999999999997E-002     3.8361754417419434     
  -8.9999999999999997E-002     3.9124155044555664     
  -8.9499999999999996E-002     3.9892795085906982     
  -8.8999999999999996E-002     4.0666556358337402     
  -8.8499999999999995E-002     4.1444954872131348     
  -8.7999999999999995E-002     4.2224955558776855     
  -8.7499999999999994E-002     4.3010072708129883     
  -8.6999999999999994E-002     4.3795833587646484     
  -8.6499999999999994E-002     4.4584794044494629     
  -8.5999999999999993E-002     4.5376634597778320     
  -8.5499999999999993E-002     4.6169753074645996     
  -8.4999999999999992E-002     4.6967515945434570     
  -8.4499999999999992E-002     4.7762713432312012     
  -8.3999999999999991E-002     4.8559832572937012     
  -8.3499999999999991E-002     4.9353275299072266     
  -8.2999999999999990E-002     5.0146236419677734     
  -8.2499999999999990E-002     5.0934553146362305     
  -8.1999999999999990E-002     5.1718711853027344     
  -8.1499999999999989E-002     5.2497916221618652     
  -8.0999999999999989E-002     5.3274555206298828     
  -8.0499999999999988E-002     5.4046711921691895     
  -7.9999999999999988E-002     5.4811515808105469     
  -7.9499999999999987E-002     5.5569591522216797     
  -7.8999999999999987E-002     5.6320953369140625     
  -7.8499999999999986E-002     5.7066235542297363     
  -7.7999999999999986E-002     5.7803511619567871     
  -7.7499999999999986E-002     5.8531513214111328     
  -7.6999999999999985E-002     5.9246392250061035     
  -7.6499999999999985E-002     5.9945912361145020     
  -7.5999999999999984E-002     6.0631670951843262     
  -7.5499999999999984E-002     6.1304950714111328     
  -7.4999999999999983E-002     6.1963834762573242     
  -7.4499999999999983E-002     6.2605752944946289     
  -7.3999999999999982E-002     6.3227834701538086     
  -7.3499999999999982E-002     6.3831672668457031     
  -7.2999999999999982E-002     6.4415674209594727     
  -7.2499999999999981E-002     6.4982070922851562     
  -7.1999999999999981E-002     6.5519990921020508     
  -7.1499999999999980E-002     6.6034231185913086     
  -7.0999999999999980E-002     6.6531510353088379     
  -7.0499999999999979E-002     6.7000632286071777     
  -6.9999999999999979E-002     6.7446393966674805     
  -6.9499999999999978E-002     6.7870712280273438     
  -6.8999999999999978E-002     6.8266234397888184     
  -6.8499999999999978E-002     6.8630390167236328     
  -6.7999999999999977E-002     6.8965110778808594     
  -6.7499999999999977E-002     6.9258232116699219     
  -6.6999999999999976E-002     6.9516153335571289     
  -6.6499999999999976E-002     6.9728631973266602     
  -6.5999999999999975E-002     6.9903349876403809     
  -6.5499999999999975E-002     7.0037751197814941     
  -6.4999999999999974E-002     7.0136952400207520     
  -6.4499999999999974E-002     7.0196471214294434     
  -6.4000000000000001E-002     7.0214390754699707     
  -6.3500000000000001E-002     7.0191993713378906     
  -6.3000000000000000E-002     7.0129270553588867     
  -6.2500000000000000E-002     7.0024313926696777     
  -6.2000000000000000E-002     6.9878392219543457     
  -6.1499999999999999E-002     6.9676151275634766     
  -6.0999999999999999E-002     6.9430394172668457     
  -6.0499999999999998E-002     6.9114871025085449     
  -5.9999999999999998E-002     6.8735351562500000     
  -5.9499999999999997E-002     6.8295674324035645     
  -5.8999999999999997E-002     6.7802233695983887     
  -5.8499999999999996E-002     6.7250552177429199     
  -5.7999999999999996E-002     6.6638712882995605     
  -5.7499999999999996E-002     6.5967993736267090     
  -5.6999999999999995E-002     6.5237112045288086     
  -5.6499999999999995E-002     6.4447994232177734     
  -5.5999999999999994E-002     6.3599352836608887     
  -5.5499999999999994E-002     6.2683510780334473     
  -5.4999999999999993E-002     6.1699833869934082     
  -5.4499999999999993E-002     6.0655994415283203     
  -5.3999999999999992E-002     5.9525113105773926     
  -5.3499999999999992E-002     5.8323192596435547     
  -5.2999999999999992E-002     5.7039995193481445     
  -5.2499999999999991E-002     5.5692791938781738     
  -5.1999999999999991E-002     5.4257912635803223     
  -5.1499999999999990E-002     5.2750072479248047     
  -5.0999999999999990E-002     5.1148796081542969     
  -5.0499999999999989E-002     4.9465594291687012     
  -4.9999999999999989E-002     4.7733755111694336     
  -4.9499999999999988E-002     4.5913596153259277     
  -4.8999999999999988E-002     4.4015355110168457     
  -4.8499999999999988E-002     4.2040314674377441     
  -4.7999999999999987E-002     3.9978234767913818     
  -4.7499999999999987E-002     3.7831676006317139     
  -4.6999999999999986E-002     3.5590395927429199     
  -4.6499999999999986E-002     3.3271036148071289     
  -4.5999999999999985E-002     3.0845437049865723     
  -4.5499999999999985E-002     2.8339197635650635     
  -4.4999999999999984E-002     2.5727996826171875     
  -4.4499999999999984E-002     2.3039996623992920     
  -4.3999999999999984E-002     2.0259838104248047     
  -4.3499999999999983E-002     1.7391357421875000     
  -4.2999999999999983E-002     1.4446078538894653     
  -4.2499999999999982E-002     1.1418879032135010     
  -4.1999999999999982E-002    0.82943987846374512     
  -4.1499999999999981E-002    0.50803196430206299     
  -4.0999999999999981E-002    0.17753598093986511     
  -4.0499999999999980E-002   -0.16140797734260559     
  -3.9999999999999980E-002   -0.51084792613983154     
  -3.9499999999999980E-002   -0.86873590946197510     
  -3.8999999999999979E-002    -1.2345598936080933     
  -3.8499999999999979E-002    -1.6115198135375977     
  -3.7999999999999978E-002    -1.9985917806625366     
  -3.7499999999999978E-002    -2.3918077945709229     
  -3.6999999999999977E-002    -2.7938556671142578     
  -3.6499999999999977E-002    -3.2028155326843262     
  -3.5999999999999976E-002    -3.6186876296997070     
  -3.5499999999999976E-002    -4.0445437431335449     
  -3.4999999999999976E-002    -4.4807672500610352     
  -3.4499999999999975E-002    -4.9245433807373047     
  -3.3999999999999975E-002    -5.3761272430419922     
  -3.3499999999999974E-002    -5.8369274139404297     
  -3.2999999999999974E-002    -6.3065590858459473     
  -3.2499999999999973E-002    -6.7842550277709961     
  -3.1999999999999973E-002    -7.2695031166076660     
  -3.1500000000000000E-002    -7.7593588829040527     
  -3.1000000000000000E-002    -8.2561273574829102     
  -3.0499999999999999E-002    -8.7605752944946289     
  -2.9999999999999999E-002    -9.2687349319458008     
  -2.9499999999999998E-002    -9.7816305160522461     
  -2.8999999999999998E-002    -10.299518585205078     
  -2.8499999999999998E-002    -10.824831008911133     
  -2.7999999999999997E-002    -11.358462333679199     
  -2.7499999999999997E-002    -11.895038604736328     
  -2.6999999999999996E-002    -12.440830230712891     
  -2.6499999999999996E-002    -12.991358757019043     
  -2.5999999999999995E-002    -13.548158645629883     
  -2.5499999999999995E-002    -14.106493949890137     
  -2.4999999999999994E-002    -14.674686431884766     
  -2.4499999999999994E-002    -15.242494583129883     
  -2.3999999999999994E-002    -15.813630104064941     
  -2.3499999999999993E-002    -16.387582778930664     
  -2.2999999999999993E-002    -16.960638046264648     
  -2.2499999999999992E-002    -17.532157897949219     
  -2.1999999999999992E-002    -18.105981826782227     
  -2.1499999999999991E-002    -18.676477432250977     
  -2.0999999999999991E-002    -19.249021530151367     
  -2.0499999999999990E-002    -19.824766159057617     
  -1.9999999999999990E-002    -20.402173995971680     
  -1.9499999999999990E-002    -20.980478286743164     
  -1.8999999999999989E-002    -21.562877655029297     
  -1.8499999999999989E-002    -22.140413284301758     
  -1.7999999999999988E-002    -22.716669082641602     
  -1.7499999999999988E-002    -23.288829803466797     
  -1.6999999999999987E-002    -23.860988616943359     
  -1.6499999999999987E-002    -24.430076599121094     
  -1.5999999999999986E-002    -24.987388610839844     
  -1.5499999999999986E-002    -25.543165206909180     
  -1.4999999999999986E-002    -26.092285156250000     
  -1.4499999999999985E-002    -26.635261535644531     
  -1.3999999999999985E-002    -27.171325683593750     
  -1.3499999999999984E-002    -27.703292846679688     
  -1.2999999999999984E-002    -28.230268478393555     
  -1.2499999999999983E-002    -28.748796463012695     
  -1.1999999999999983E-002    -29.266685485839844     
  -1.1499999999999982E-002    -29.774204254150391     
  -1.0999999999999982E-002    -30.272380828857422     
  -1.0499999999999982E-002    -30.756477355957031     
  -9.9999999999999811E-003    -31.225725173950195     
  -9.4999999999999807E-003    -31.686780929565430     
  -8.9999999999999802E-003    -32.129917144775391     
  -8.4999999999999798E-003    -32.562171936035156     
  -7.9999999999999793E-003    -32.981754302978516     
  -7.4999999999999789E-003    -33.394042968750000     
  -6.9999999999999785E-003    -33.789562225341797     
  -6.4999999999999780E-003    -34.175994873046875     
  -5.9999999999999776E-003    -34.549499511718750     
  -5.4999999999999771E-003    -34.908283233642578     
  -4.9999999999999767E-003    -35.255546569824219     
  -4.4999999999999762E-003    -35.582588195800781     
  -3.9999999999999758E-003    -35.890426635742188     
  -3.4999999999999754E-003    -36.177787780761719     
  -2.9999999999999749E-003    -36.445564270019531     
  -2.4999999999999745E-003    -36.691837310791016     
  -1.9999999999999740E-003    -36.915706634521484     
  -1.4999999999999736E-003    -37.124858856201172     
  -9.9999999999997313E-004    -37.309818267822266     
  -4.9999999999997269E-004    -37.478397369384766     
   0.0000000000000000         -37.629817962646484     
   5.0000000000000044E-004    -37.760890960693359     
   1.0000000000000009E-003    -37.876731872558594     
   1.5000000000000013E-003    -37.965820312500000     
   2.0000000000000018E-003    -38.032253265380859     
   2.5000000000000022E-003    -38.067707061767578     
   3.0000000000000027E-003    -38.086650848388672     
   3.5000000000000031E-003    -38.071548461914062     
   4.0000000000000036E-003    -38.031867980957031     
   4.5000000000000040E-003    -37.965946197509766     
   5.0000000000000044E-003    -37.875965118408203     
   5.5000000000000049E-003    -37.766010284423828     
   6.0000000000000053E-003    -37.629051208496094     
   6.5000000000000058E-003    -37.472763061523438     
   7.0000000000000062E-003    -37.294010162353516     
   7.5000000000000067E-003    -37.084411621093750     
   8.0000000000000071E-003    -36.851516723632812     
   8.5000000000000075E-003    -36.589370727539062     
   9.0000000000000080E-003    -36.296829223632812     
   9.5000000000000084E-003    -35.972667694091797     
   1.0000000000000009E-002    -35.616954803466797     
   1.0500000000000009E-002    -35.232765197753906     
   1.1000000000000010E-002    -34.822650909423828     
   1.1500000000000010E-002    -34.383804321289062     
   1.2000000000000011E-002    -33.920860290527344     
   1.2500000000000011E-002    -33.434013366699219     
   1.3000000000000012E-002    -32.923229217529297     
   1.3500000000000012E-002    -32.386363983154297     
   1.4000000000000012E-002    -31.819980621337891     
   1.4500000000000013E-002    -31.223564147949219     
   1.5000000000000013E-002    -30.603963851928711     
   1.5500000000000014E-002    -29.953668594360352     
   1.6000000000000014E-002    -29.271173477172852     
   1.6500000000000015E-002    -28.559524536132812     
   1.7000000000000015E-002    -27.817453384399414     
   1.7500000000000016E-002    -27.050956726074219     
   1.8000000000000016E-002    -26.253757476806641     
   1.8500000000000016E-002    -25.434268951416016     
   1.9000000000000017E-002    -24.593437194824219     
   1.9500000000000017E-002    -23.730876922607422     
   2.0000000000000018E-002    -22.847805023193359     
   2.0500000000000018E-002    -21.940349578857422     
   2.1000000000000019E-002    -21.009149551391602     
   2.1500000000000019E-002    -20.048765182495117     
   2.2000000000000020E-002    -19.061502456665039     
   2.2500000000000020E-002    -18.048189163208008     
   2.3000000000000020E-002    -17.009342193603516     
   2.3500000000000021E-002    -15.949374198913574     
   2.4000000000000021E-002    -14.865533828735352     
   2.4500000000000022E-002    -13.763198852539062     
   2.5000000000000022E-002    -12.643838882446289     
   2.5500000000000023E-002    -11.509630203247070     
   2.6000000000000023E-002    -10.358910560607910     
   2.6500000000000024E-002    -9.1920633316040039     
   2.7000000000000024E-002    -8.0121593475341797     
   2.7500000000000024E-002    -6.8139510154724121     
   2.8000000000000025E-002    -5.5971832275390625     
   2.8500000000000025E-002    -4.3603196144104004     
   2.9000000000000026E-002    -3.1066875457763672     
   2.9500000000000026E-002    -1.8341118097305298     
   3.0000000000000027E-002   -0.54540795087814331     
   3.0500000000000027E-002    0.75545591115951538     
   3.1000000000000028E-002     2.0633597373962402     
   3.1500000000000028E-002     3.3786876201629639     
   3.2000000000000028E-002     4.6986236572265625     