 -0.23999999999999999          0.0000000000000000     
 -0.23949999999999999         -1.4627300202846527E-002
 -0.23899999999999999         -4.0255539119243622E-002
 -0.23849999999999999         -6.9767601788043976E-002
 -0.23799999999999999         -9.4856128096580505E-002
 -0.23749999999999999        -0.10889249294996262     
 -0.23699999999999999        -0.10959362983703613     
 -0.23649999999999999        -0.10073117911815643     
 -0.23599999999999999         -9.2331320047378540E-002
 -0.23549999999999999         -9.9161982536315918E-002
 -0.23499999999999999        -0.13771955668926239     
 -0.23449999999999999        -0.22231365740299225     
 -0.23399999999999999        -0.36111235618591309     
 -0.23349999999999999        -0.55308943986892700     
 -0.23299999999999998        -0.78667634725570679     
 -0.23249999999999998         -1.0405936241149902     
 -0.23199999999999998         -1.2868814468383789     
 -0.23149999999999998         -1.4956618547439575     
 -0.23099999999999998         -1.6407575607299805     
 -0.23049999999999998         -1.7050538063049316     
 -0.22999999999999998         -1.6844733953475952     
 -0.22949999999999998         -1.5896748304367065     
 -0.22899999999999998         -1.4449979066848755     
 -0.22849999999999998         -1.2847430706024170     
 -0.22799999999999998         -1.1474019289016724     
 -0.22749999999999998         -1.0689077377319336     
 -0.22699999999999998         -1.0761958360671997     
 -0.22649999999999998         -1.1823461055755615     
 -0.22599999999999998         -1.3842778205871582     
 -0.22549999999999998         -1.6634970903396606     
 -0.22499999999999998         -1.9897794723510742     
 -0.22449999999999998         -2.3270823955535889     
 -0.22399999999999998         -2.6405646800994873     
 -0.22349999999999998         -2.9033114910125732     
 -0.22299999999999998         -3.1014614105224609     
 -0.22249999999999998         -3.2367453575134277     
 -0.22199999999999998         -3.3259212970733643     
 -0.22150000000000000         -3.3972821235656738     
 -0.22100000000000000         -3.4849195480346680     
 -0.22050000000000000         -3.6219449043273926     
 -0.22000000000000000         -3.8340167999267578     
 -0.21950000000000000         -4.1344590187072754     
 -0.21900000000000000         -4.5219521522521973     
 -0.21850000000000000         -4.9811964035034180     
 -0.21800000000000000         -5.4864020347595215     
 -0.21750000000000000         -6.0068287849426270     
 -0.21700000000000000         -6.5132699012756348     
 -0.21650000000000000         -6.9841079711914062     
 -0.21600000000000000         -7.4097981452941895     
 -0.21550000000000000         -7.7948503494262695     
 -0.21500000000000000         -8.1570262908935547     
 -0.21450000000000000         -8.5239200592041016     
 -0.21400000000000000         -8.9277219772338867     
 -0.21350000000000000         -9.3992528915405273     
 -0.21299999999999999         -9.9624643325805664     
 -0.21249999999999999         -10.630588531494141     
 -0.21199999999999999         -11.404533386230469     
 -0.21149999999999999         -12.273859024047852     
 -0.21099999999999999         -13.220083236694336     
 -0.21049999999999999         -14.221373558044434     
 -0.20999999999999999         -15.257842063903809     
 -0.20949999999999999         -16.316150665283203     
 -0.20899999999999999         -17.392553329467773     
 -0.20849999999999999         -18.493873596191406     
 -0.20799999999999999         -19.636201858520508     
 -0.20749999999999999         -20.841728210449219     
 -0.20699999999999999         -22.134515762329102     
 -0.20649999999999999         -23.536062240600586     
 -0.20599999999999999         -25.061714172363281     
 -0.20549999999999999         -26.718656539916992     
 -0.20499999999999999         -28.505718231201172     
 -0.20449999999999999         -30.415307998657227     
 -0.20399999999999999         -32.436546325683594     
 -0.20349999999999999         -34.559284210205078     
 -0.20299999999999999         -36.777847290039062     
 -0.20249999999999999         -39.093750000000000     
 -0.20199999999999999         -41.516899108886719     
 -0.20149999999999998         -44.065109252929688     
 -0.20099999999999998         -46.761734008789062     
 -0.20049999999999998         -49.632606506347656     
 -0.19999999999999998         -52.702400207519531     
 -0.19949999999999998         -55.991573333740234     
 -0.19899999999999998         -59.514587402343750     
 -0.19849999999999998         -63.279384613037109     
 -0.19799999999999998         -67.288696289062500     
 -0.19749999999999998         -71.542526245117188     
 -0.19699999999999998         -76.041267395019531     
 -0.19649999999999998         -80.788696289062500     
 -0.19600000000000001         -85.794334411621094     
 -0.19550000000000001         -91.074806213378906     
 -0.19500000000000001         -96.652984619140625     
 -0.19450000000000001         -102.55694580078125     
 -0.19400000000000001         -108.81674194335938     
 -0.19350000000000001         -115.46215820312500     
 -0.19300000000000000         -122.52022552490234     
 -0.19250000000000000         -130.01380920410156     
 -0.19200000000000000         -137.96122741699219     
 -0.19150000000000000         -146.37826538085938     
 -0.19100000000000000         -155.27981567382812     
 -0.19050000000000000         -164.68266296386719     
 -0.19000000000000000         -174.60877990722656     
 -0.18950000000000000         -185.08607482910156     
 -0.18900000000000000         -196.14976501464844     
 -0.18850000000000000         -207.84127807617188     
 -0.18800000000000000         -220.20643615722656     
 -0.18750000000000000         -233.29246520996094     
 -0.18700000000000000         -247.14559936523438     
 -0.18650000000000000         -261.80935668945312     
 -0.18600000000000000         -277.32263183593750     
 -0.18550000000000000         -293.72064208984375     
 -0.18500000000000000         -311.03793334960938     
 -0.18450000000000000         -329.30999755859375     
 -0.18400000000000000         -348.57711791992188     
 -0.18350000000000000         -368.88842773437500     
 -0.18300000000000000         -390.30230712890625     
 -0.18250000000000000         -412.88833618164062     
 -0.18200000000000000         -436.72546386718750     
 -0.18149999999999999         -461.89916992187500     
 -0.18099999999999999         -488.49792480468750     
 -0.18049999999999999         -516.60998535156250     
 -0.17999999999999999         -546.31842041015625     
 -0.17949999999999999         -577.70202636718750     
 -0.17899999999999999         -610.83312988281250     
 -0.17849999999999999         -645.78112792968750     
 -0.17799999999999999         -682.61614990234375     
 -0.17749999999999999         -721.41235351562500     
 -0.17699999999999999         -762.25518798828125     
 -0.17649999999999999         -805.24169921875000     
 -0.17599999999999999         -850.48645019531250     
 -0.17549999999999999         -898.11914062500000     
 -0.17499999999999999         -948.28283691406250     
 -0.17449999999999999         -1001.1317749023438     
 -0.17399999999999999         -1056.8231201171875     
 -0.17349999999999999         -1115.5192871093750     
 -0.17299999999999999         -1177.3771972656250     
 -0.17249999999999999         -1242.5501708984375     
 -0.17199999999999999         -1311.1887207031250     
 -0.17149999999999999         -1383.4418945312500     
 -0.17099999999999999         -1459.4636230468750     
 -0.17049999999999998         -1539.4161376953125     
 -0.16999999999999998         -1623.4755859375000     
 -0.16949999999999998         -1711.8366699218750     
 -0.16899999999999998         -1804.7141113281250     
 -0.16849999999999998         -1902.3410644531250     
 -0.16799999999999998         -2004.9699707031250     
 -0.16749999999999998         -2112.8674316406250     
 -0.16699999999999998         -2226.3117675781250     
 -0.16649999999999998         -2345.5854492187500     
 -0.16599999999999998         -2470.9736328125000     
 -0.16549999999999998         -2602.7651367187500     
 -0.16499999999999998         -2741.2512207031250     
 -0.16449999999999998         -2886.7282714843750     
 -0.16399999999999998         -3039.5075683593750     
 -0.16349999999999998         -3199.9096679687500     
 -0.16299999999999998         -3368.2756347656250     
 -0.16249999999999998         -3544.9716796875000     
 -0.16199999999999998         -3730.3886718750000     
 -0.16149999999999998         -3924.9401855468750     
 -0.16099999999999998         -4129.0693359375000     
 -0.16049999999999998         -4343.2348632812500     
 -0.15999999999999998         -4567.9121093750000     
 -0.15949999999999998         -4803.5942382812500     
 -0.15899999999999997         -5050.7836914062500     
 -0.15849999999999997         -5310.0053710937500     
 -0.15799999999999997         -5581.7968750000000     
 -0.15749999999999997         -5866.7045898437500     
 -0.15699999999999997         -6165.3125000000000     
 -0.15649999999999997         -6478.2221679687500     
 -0.15599999999999997         -6806.0571289062500     
 -0.15549999999999997         -7149.4804687500000     
 -0.15499999999999997         -7509.1918945312500     
 -0.15449999999999997         -7885.9184570312500     
 -0.15399999999999997         -8280.4179687500000     
 -0.15349999999999997         -8693.4785156250000     
 -0.15299999999999997         -9125.9287109375000     
 -0.15249999999999997         -9578.6044921875000     
 -0.15200000000000000         -10052.387695312500     
 -0.15150000000000000         -10548.170898437500     
 -0.15100000000000000         -11066.908203125000     
 -0.15049999999999999         -11609.568359375000     
 -0.14999999999999999         -12177.153320312500     
 -0.14949999999999999         -12770.732421875000     
 -0.14899999999999999         -13391.401367187500     
 -0.14849999999999999         -14040.293945312500     
 -0.14799999999999999         -14718.609375000000     
 -0.14749999999999999         -15427.579101562500     
 -0.14699999999999999         -16168.486328125000     
 -0.14649999999999999         -16942.664062500000     
 -0.14599999999999999         -17751.486328125000     
 -0.14549999999999999         -18596.367187500000     
 -0.14499999999999999         -19478.779296875000     
 -0.14449999999999999         -20400.279296875000     
 -0.14399999999999999         -21362.417968750000     
 -0.14349999999999999         -22366.839843750000     
 -0.14299999999999999         -23415.228515625000     
 -0.14249999999999999         -24509.382812500000     
 -0.14199999999999999         -25651.125000000000     
 -0.14149999999999999         -26842.326171875000     
 -0.14099999999999999         -28085.001953125000     
 -0.14049999999999999         -29381.154296875000     
 -0.13999999999999999         -30732.886718750000     
 -0.13949999999999999         -32142.425781250000     
 -0.13899999999999998         -33611.960937500000     
 -0.13849999999999998         -35143.812500000000     
 -0.13799999999999998         -36740.394531250000     
 -0.13749999999999998         -38404.199218750000     
 -0.13699999999999998         -40137.742187500000     
 -0.13649999999999998         -41943.707031250000     
 -0.13599999999999998         -43824.792968750000     
 -0.13550000000000001         -45783.828125000000     
 -0.13500000000000001         -47823.812500000000     
 -0.13450000000000001         -49947.734375000000     
 -0.13400000000000001         -52158.761718750000     
 -0.13350000000000001         -54460.089843750000     
 -0.13300000000000001         -56855.070312500000     
 -0.13250000000000001         -59347.078125000000     
 -0.13200000000000001         -61939.648437500000     
 -0.13150000000000001         -64636.527343750000     
 -0.13100000000000001         -67441.382812500000     
 -0.13050000000000000         -70358.039062500000     
 -0.13000000000000000         -73390.515625000000     
 -0.12950000000000000         -76542.984375000000     
 -0.12900000000000000         -79819.640625000000     
 -0.12850000000000000         -83224.773437500000     
 -0.12800000000000000         -86763.078125000000     
 -0.12750000000000000         -90439.093750000000     
 -0.12700000000000000         -94257.632812500000     
 -0.12650000000000000         -98223.515625000000     
 -0.12600000000000000         -102342.03125000000     
 -0.12550000000000000         -106618.25000000000     
 -0.12499999999999999         -111057.48437500000     
 -0.12449999999999999         -115665.17187500000     
 -0.12399999999999999         -120447.09375000000     
 -0.12349999999999998         -125408.86718750000     
 -0.12299999999999998         -130556.53906250000     
 -0.12249999999999998         -135896.31250000000     
 -0.12199999999999998         -141434.26562500000     
 -0.12149999999999998         -147176.96875000000     
 -0.12099999999999998         -153131.20312500000     
 -0.12049999999999998         -159303.70312500000     
 -0.12000000000000000         -165701.42187500000     
 -0.11950000000000000         -172331.64062500000     
 -0.11899999999999999         -179201.53125000000     
 -0.11849999999999999         -186318.57812500000     
 -0.11799999999999999         -193691.04687500000     
 -0.11749999999999999         -201326.18750000000     
 -0.11699999999999999         -209232.53125000000     
 -0.11649999999999999         -217418.07812500000     
 -0.11599999999999999         -225891.81250000000     
 -0.11549999999999999         -234662.03125000000     
 -0.11499999999999999         -243737.78125000000     
 -0.11449999999999999         -253128.07812500000     
 -0.11399999999999999         -262842.59375000000     
 -0.11349999999999999         -272890.46875000000     
 -0.11299999999999999         -283281.96875000000     
 -0.11249999999999999         -294026.28125000000     
 -0.11199999999999999         -305134.21875000000     
 -0.11149999999999999         -316615.87500000000     
 -0.11099999999999999         -328482.06250000000     
 -0.11049999999999999         -340744.15625000000     
 -0.10999999999999999         -353412.46875000000     
 -0.10949999999999999         -366498.96875000000     
 -0.10899999999999999         -380014.53125000000     
 -0.10849999999999999         -393971.53125000000     
 -0.10799999999999998         -408381.75000000000     
 -0.10749999999999998         -423257.12500000000     
 -0.10699999999999998         -438610.43750000000     
 -0.10649999999999998         -454454.21875000000     
 -0.10599999999999998         -470801.25000000000     
 -0.10549999999999998         -487664.96875000000     
 -0.10499999999999998         -505059.40625000000     
 -0.10449999999999998         -522997.34375000000     
 -0.10399999999999998         -541493.00000000000     
 -0.10349999999999998         -560560.12500000000     
 -0.10299999999999998         -580213.56250000000     
 -0.10249999999999998         -600467.37500000000     
 -0.10199999999999998         -621336.50000000000     
 -0.10149999999999998         -642835.87500000000     
 -0.10099999999999998         -664980.75000000000     
 -0.10049999999999998         -687787.37500000000     
  -9.9999999999999978E-002    -711270.81250000000     
  -9.9499999999999977E-002    -735446.06250000000     
  -9.8999999999999977E-002    -760330.31250000000     
  -9.8499999999999976E-002    -785940.18750000000     
  -9.7999999999999976E-002    -812291.12500000000     
  -9.7499999999999976E-002    -839399.31250000000     
  -9.6999999999999975E-002    -867284.25000000000     
  -9.6499999999999975E-002    -895960.25000000000     
  -9.5999999999999974E-002    -925446.06250000000     
  -9.5500000000000002E-002    -955759.62500000000     
  -9.5000000000000001E-002    -986917.81250000000     
  -9.4500000000000001E-002    -1018939.6875000000     
  -9.4000000000000000E-002    -1051839.6250000000     
  -9.3500000000000000E-002    -1085639.3750000000     
  -9.2999999999999999E-002    -1120356.0000000000     
  -9.2499999999999999E-002    -1156007.8750000000     
  -9.1999999999999998E-002    -1192613.7500000000     
  -9.1499999999999998E-002    -1230190.0000000000     
  -9.0999999999999998E-002    -1268758.6250000000     
  -9.0499999999999997E-002    -1308336.8750000000     
  -8.9999999999999997E-002    -1348946.0000000000     
  -8.9499999999999996E-002    -1390601.8750000000     
  -8.8999999999999996E-002    -1433324.5000000000     
  -8.8499999999999995E-002    -1477136.6250000000     
  -8.7999999999999995E-002    -1522052.7500000000     
  -8.7499999999999994E-002    -1568094.5000000000     
  -8.6999999999999994E-002    -1615279.5000000000     
  -8.6499999999999994E-002    -1663626.8750000000     
  -8.5999999999999993E-002    -1713156.6250000000     
  -8.5499999999999993E-002    -1763886.6250000000     
  -8.4999999999999992E-002    -1815835.2500000000     
  -8.4499999999999992E-002    -1869026.1250000000     
  -8.3999999999999991E-002    -1923475.5000000000     
  -8.3499999999999991E-002    -1979203.1250000000     
  -8.2999999999999990E-002    -2036229.0000000000     
  -8.2499999999999990E-002    -2094571.1250000000     
  -8.1999999999999990E-002    -2154247.0000000000     
  -8.1499999999999989E-002    -2215276.2500000000     
  -8.0999999999999989E-002    -2277674.5000000000     
  -8.0499999999999988E-002    -2341464.0000000000     
  -7.9999999999999988E-002    -2406660.7500000000     
  -7.9499999999999987E-002    -2473276.7500000000     
  -7.8999999999999987E-002    -2541329.5000000000     
  -7.8499999999999986E-002    -2610844.5000000000     
  -7.7999999999999986E-002    -2681833.0000000000     
  -7.7499999999999986E-002    -2754311.2500000000     
  -7.6999999999999985E-002    -2828295.5000000000     
  -7.6499999999999985E-002    -2903802.0000000000     
  -7.5999999999999984E-002    -2980845.7500000000     
  -7.5499999999999984E-002    -3059443.0000000000     
  -7.4999999999999983E-002    -3139604.7500000000     
  -7.4499999999999983E-002    -3221350.0000000000     
  -7.3999999999999982E-002    -3304684.5000000000     
  -7.3499999999999982E-002    -3389631.5000000000     
  -7.2999999999999982E-002    -3476192.0000000000     
  -7.2499999999999981E-002    -3564378.2500000000     
  -7.1999999999999981E-002    -3654203.0000000000     
  -7.1499999999999980E-002    -3745679.2500000000     
  -7.0999999999999980E-002    -3838806.0000000000     
  -7.0499999999999979E-002    -3933607.2500000000     
  -6.9999999999999979E-002    -4030075.0000000000     
  -6.9499999999999978E-002    -4128227.7500000000     
  -6.8999999999999978E-002    -4228071.5000000000     
  -6.8499999999999978E-002    -4329612.5000000000     
  -6.7999999999999977E-002    -4432844.0000000000     
  -6.7499999999999977E-002    -4537780.5000000000     
  -6.6999999999999976E-002    -4644425.0000000000     
  -6.6499999999999976E-002    -4752776.5000000000     
  -6.5999999999999975E-002    -4862833.0000000000     
  -6.5499999999999975E-002    -4974600.0000000000     
  -6.4999999999999974E-002    -5088064.5000000000     
  -6.4499999999999974E-002    -5203228.0000000000     
  -6.4000000000000001E-002    -5320085.0000000000     
  -6.3500000000000001E-002    -5438637.0000000000     
  -6.3000000000000000E-002    -5558864.5000000000     
  -6.2500000000000000E-002    -5680773.0000000000     
  -6.2000000000000000E-002    -5804346.5000000000     
  -6.1499999999999999E-002    -5929574.0000000000     
  -6.0999999999999999E-002    -6056460.5000000000     
  -6.0499999999999998E-002    -6184978.0000000000     
  -5.9999999999999998E-002    -6315118.0000000000     
  -5.9499999999999997E-002    -6446858.5000000000     
  -5.8999999999999997E-002    -6580190.5000000000     
  -5.8499999999999996E-002    -6715102.0000000000     
  -5.7999999999999996E-002    -6851557.0000000000     
  -5.7499999999999996E-002    -6989528.5000000000     
  -5.6999999999999995E-002    -7128983.5000000000     
  -5.6499999999999995E-002    -7269932.5000000000     
  -5.5999999999999994E-002    -7412303.5000000000     
  -5.5499999999999994E-002    -7556088.0000000000     
  -5.4999999999999993E-002    -7701262.0000000000     
  -5.4499999999999993E-002    -7847781.5000000000     
  -5.3999999999999992E-002    -7995643.5000000000     
  -5.3499999999999992E-002    -8144777.5000000000     
  -5.2999999999999992E-002    -8295158.0000000000     
  -5.2499999999999991E-002    -8446750.0000000000     
  -5.1999999999999991E-002    -8599522.0000000000     
  -5.1499999999999990E-002    -8753401.0000000000     
  -5.0999999999999990E-002    -8908354.0000000000     
  -5.0499999999999989E-002    -9064339.0000000000     
  -4.9999999999999989E-002    -9221283.0000000000     
  -4.9499999999999988E-002    -9379182.0000000000     
  -4.8999999999999988E-002    -9537927.0000000000     
  -4.8499999999999988E-002    -9697487.0000000000     
  -4.7999999999999987E-002    -9857811.0000000000     
  -4.7499999999999987E-002    -10018814.000000000     
  -4.6999999999999986E-002    -10180450.000000000     
  -4.6499999999999986E-002    -10342645.000000000     
  -4.5999999999999985E-002    -10505353.000000000     
  -4.5499999999999985E-002    -10668513.000000000     
  -4.4999999999999984E-002    -10832025.000000000     
  -4.4499999999999984E-002    -10995839.000000000     
  -4.3999999999999984E-002    -11159863.000000000     
  -4.3499999999999983E-002    -11324030.000000000     
  -4.2999999999999983E-002    -11488249.000000000     
  -4.2499999999999982E-002    -11652430.000000000     
  -4.1999999999999982E-002    -11816514.000000000     
  -4.1499999999999981E-002    -11980408.000000000     
  -4.0999999999999981E-002    -12143998.000000000     
  -4.0499999999999980E-002    -12307222.000000000     
  -3.9999999999999980E-002    -12469972.000000000     
  -3.9499999999999980E-002    -12632161.000000000     
  -3.8999999999999979E-002    -12793704.000000000     
  -3.8499999999999979E-002    -12954517.000000000     
  -3.7999999999999978E-002    -13114448.000000000     
  -3.7499999999999978E-002    -13273434.000000000     
  -3.6999999999999977E-002    -13431384.000000000     
  -3.6499999999999977E-002    -13588140.000000000     
  -3.5999999999999976E-002    -13743654.000000000     
  -3.5499999999999976E-002    -13897767.000000000     
  -3.4999999999999976E-002    -14050370.000000000     
  -3.4499999999999975E-002    -14201380.000000000     
  -3.3999999999999975E-002    -14350652.000000000     
  -3.3499999999999974E-002    -14498099.000000000     
  -3.2999999999999974E-002    -14643562.000000000     
  -3.2499999999999973E-002    -14786944.000000000     
  -3.1999999999999973E-002    -14928099.000000000     
  -3.1500000000000000E-002    -15066909.000000000     
  -3.1000000000000000E-002    -15203269.000000000     
  -3.0499999999999999E-002    -15337047.000000000     
  -2.9999999999999999E-002    -15468057.000000000     
  -2.9499999999999998E-002    -15596263.000000000     
  -2.8999999999999998E-002    -15721505.000000000     
  -2.8499999999999998E-002    -15843671.000000000     
  -2.7999999999999997E-002    -15962592.000000000     
  -2.7499999999999997E-002    -16078191.000000000     
  -2.6999999999999996E-002    -16190300.000000000     
  -2.6499999999999996E-002    -16298754.000000000     
  -2.5999999999999995E-002    -16403473.000000000     
  -2.5499999999999995E-002    -16504233.000000000     
  -2.4999999999999994E-002    -16600988.000000000     
  -2.4499999999999994E-002    -16693515.000000000     
  -2.3999999999999994E-002    -16781662.000000000     
  -2.3499999999999993E-002    -16865382.000000000     
  -2.2999999999999993E-002    -16944418.000000000     
  -2.2499999999999992E-002    -17018698.000000000     
  -2.1999999999999992E-002    -17088068.000000000     
  -2.1499999999999991E-002    -17152472.000000000     
  -2.0999999999999991E-002    -17211762.000000000     
  -2.0499999999999990E-002    -17265796.000000000     
  -1.9999999999999990E-002    -17314428.000000000     
  -1.9499999999999990E-002    -17357476.000000000     
  -1.8999999999999989E-002    -17394832.000000000     
  -1.8499999999999989E-002    -17426396.000000000     
  -1.7999999999999988E-002    -17451952.000000000     
  -1.7499999999999988E-002    -17471374.000000000     
  -1.6999999999999987E-002    -17484556.000000000     
  -1.6499999999999987E-002    -17491308.000000000     
  -1.5999999999999986E-002    -17491546.000000000     
  -1.5499999999999986E-002    -17485158.000000000     
  -1.4999999999999986E-002    -17472014.000000000     
  -1.4499999999999985E-002    -17451974.000000000     
  -1.3999999999999985E-002    -17424952.000000000     
  -1.3499999999999984E-002    -17390888.000000000     
  -1.2999999999999984E-002    -17349600.000000000     
  -1.2499999999999983E-002    -17300918.000000000     
  -1.1999999999999983E-002    -17244774.000000000     
  -1.1499999999999982E-002    -17181070.000000000     
  -1.0999999999999982E-002    -17109618.000000000     
  -1.0499999999999982E-002    -17030402.000000000     
  -9.9999999999999811E-003    -16943246.000000000     
  -9.4999999999999807E-003    -16848046.000000000     
  -8.9999999999999802E-003    -16744770.000000000     
  -8.4999999999999798E-003    -16633276.000000000     
  -7.9999999999999793E-003    -16513534.000000000     
  -7.4999999999999789E-003    -16385486.000000000     
  -6.9999999999999785E-003    -16249015.000000000     
  -6.4999999999999780E-003    -16104012.000000000     
  -5.9999999999999776E-003    -15950444.000000000     
  -5.4999999999999771E-003    -15788250.000000000     
  -4.9999999999999767E-003    -15617361.000000000     
  -4.4999999999999762E-003    -15437607.000000000     
  -3.9999999999999758E-003    -15248985.000000000     
  -3.4999999999999754E-003    -15051462.000000000     
  -2.9999999999999749E-003    -14844955.000000000     
  -2.4999999999999745E-003    -14629387.000000000     
  -1.9999999999999740E-003    -14404736.000000000     
  -1.4999999999999736E-003    -14171051.000000000     
  -9.9999999999997313E-004    -13928301.000000000     
  -4.9999999999997269E-004    -13676451.000000000     
   0.0000000000000000         -13415636.000000000     
   5.0000000000000044E-004    -13145742.000000000     
   1.0000000000000009E-003    -12866705.000000000     
   1.5000000000000013E-003    -12578504.000000000     
   2.0000000000000018E-003    -12281189.000000000     
   2.5000000000000022E-003    -11974681.000000000     
   3.0000000000000027E-003    -11659020.000000000     
   3.5000000000000031E-003    -11334295.000000000     
   4.0000000000000036E-003    -11000430.000000000     
   4.5000000000000040E-003    -10657539.000000000     
   5.0000000000000044E-003    -10305691.000000000     
   5.5000000000000049E-003    -9944930.0000000000     
   6.0000000000000053E-003    -9575420.0000000000     
   6.5000000000000058E-003    -9197053.0000000000     
   7.0000000000000062E-003    -8809987.0000000000     
   7.5000000000000067E-003    -8414264.0000000000     
   8.0000000000000071E-003    -8009989.5000000000     
   8.5000000000000075E-003    -7597231.5000000000     
   9.0000000000000080E-003    -7176025.0000000000     
   9.5000000000000084E-003    -6746492.0000000000     
   1.0000000000000009E-002    -6308794.5000000000     
   1.0500000000000009E-002    -5862878.5000000000     
   1.1000000000000010E-002    -5409153.5000000000     
   1.1500000000000010E-002    -4947503.5000000000     
   1.2000000000000011E-002    -4478237.0000000000     
   1.2500000000000011E-002    -4001365.0000000000     
   1.3000000000000012E-002    -3517151.7500000000     
   1.3500000000000012E-002    -3025647.2500000000     
   1.4000000000000012E-002    -2527003.7500000000     
   1.4500000000000013E-002    -2021367.3750000000     
   1.5000000000000013E-002    -1508996.7500000000     
   1.5500000000000014E-002    -989969.31250000000     
   1.6000000000000014E-002    -464527.40625000000     
   1.6500000000000015E-002     67103.312500000000     
   1.7000000000000015E-002     604729.81250000000     
   1.7500000000000016E-002     1148160.0000000000     
   1.8000000000000016E-002     1697103.0000000000     
   1.8500000000000016E-002     2251398.7500000000     
   1.9000000000000017E-002     2810867.7500000000     
   1.9500000000000017E-002     3375256.7500000000     
   2.0000000000000018E-002     3944323.7500000000     
   2.0500000000000018E-002     4517861.5000000000     
   2.1000000000000019E-002     5095675.0000000000     
   2.1500000000000019E-002     5677573.5000000000     
   2.2000000000000020E-002     6263227.5000000000     
   2.2500000000000020E-002     6852451.0000000000     
   2.3000000000000020E-002     7444938.5000000000     
   2.3500000000000021E-002     8040292.0000000000     
   2.4000000000000021E-002     8638303.0000000000     
   2.4500000000000022E-002     9238674.0000000000     
   2.5000000000000022E-002     9841112.0000000000     
   2.5500000000000023E-002     10445345.000000000     
   2.6000000000000023E-002     11051020.000000000     
   2.6500000000000024E-002     11657985.000000000     
   2.7000000000000024E-002     12265866.000000000     
   2.7500000000000024E-002     12874430.000000000     
   2.8000000000000025E-002     13483404.000000000     
   2.8500000000000025E-002     14092468.000000000     
   2.9000000000000026E-002     14701336.000000000     
   2.9500000000000026E-002     15309721.000000000     
   3.0000000000000027E-002     15917270.000000000     
   3.0500000000000027E-002     16523648.000000000     
   3.1000000000000028E-002     17128530.000000000     
   3.1500000000000028E-002     17731566.000000000     
   3.2000000000000028E-002     18332400.000000000     