 -0.23999999999999999          0.0000000000000000     
 -0.23949999999999999          0.0000000000000000     
 -0.23899999999999999          0.0000000000000000     
 -0.23849999999999999          0.0000000000000000     
 -0.23799999999999999          0.0000000000000000     
 -0.23749999999999999          0.0000000000000000     
 -0.23699999999999999          0.0000000000000000     
 -0.23649999999999999          0.0000000000000000     
 -0.23599999999999999          0.0000000000000000     
 -0.23549999999999999          0.0000000000000000     
 -0.23499999999999999          0.0000000000000000     
 -0.23449999999999999          2.0132415305199809E-039
 -0.23399999999999999         -1.1082935424684943E-038
 -0.23349999999999999         -7.7826700049142658E-038
 -0.23299999999999998         -4.2434240442667425E-037
 -0.23249999999999998         -1.9121600579059318E-036
 -0.23199999999999998         -7.4044736321626341E-036
 -0.23149999999999998         -2.5298065220274140E-035
 -0.23099999999999998         -7.7713914102070033E-035
 -0.23049999999999998         -2.1767938126801753E-034
 -0.22999999999999998         -5.6193770103828982E-034
 -0.22949999999999998         -1.3480843484843411E-033
 -0.22899999999999998         -3.0249853334034189E-033
 -0.22849999999999998         -6.3812396667346307E-033
 -0.22799999999999998         -1.2704052444580831E-032
 -0.22749999999999998         -2.3936135809475519E-032
 -0.22699999999999998         -4.2757962072848438E-032
 -0.22649999999999998         -7.2466584272382378E-032
 -0.22599999999999998         -1.1645718331476650E-031
 -0.22549999999999998         -1.7705445920445087E-031
 -0.22499999999999998         -2.5341674142173351E-031
 -0.22449999999999998         -3.3828501321284487E-031
 -0.22399999999999998         -4.1352056845592858E-031
 -0.22349999999999998         -4.4471396644189688E-031
 -0.22299999999999998         -3.7568391398239601E-031
 -0.22249999999999998         -1.2440381229179496E-031
 -0.22199999999999998          4.1726568827149672E-031
 -0.22150000000000000          1.3768700294522760E-030
 -0.22100000000000000          2.8839974567102439E-030
 -0.22050000000000000          5.0386955199002046E-030
 -0.22000000000000000          7.8631854804186760E-030
 -0.21950000000000000          1.1236907769172093E-029
 -0.21900000000000000          1.4818859445410147E-029
 -0.21850000000000000          1.7966940714532186E-029
 -0.21800000000000000          1.9670691205552569E-029
 -0.21750000000000000          1.8520888545869587E-029
 -0.21700000000000000          1.2745490838928420E-029
 -0.21650000000000000          3.4413793313092597E-031
 -0.21600000000000000         -2.0648910018668346E-029
 -0.21550000000000000         -5.1753551767756688E-029
 -0.21500000000000000         -9.3483893288513026E-029
 -0.21450000000000000         -1.4466836275551134E-028
 -0.21400000000000000         -2.0171709363026696E-028
 -0.21350000000000000         -2.5794812284275267E-028
 -0.21299999999999999         -3.0312716680307168E-028
 -0.21249999999999999         -3.2341241121721577E-028
 -0.21199999999999999         -3.0191071159512556E-028
 -0.21149999999999999         -2.2003659615435078E-028
 -0.21099999999999999         -5.9811066419947392E-029
 -0.21049999999999999          1.9286940847450451E-028
 -0.20999999999999999          5.4411817595480005E-028
 -0.20949999999999999          9.8742264173428967E-028
 -0.20899999999999999          1.4990343050716633E-027
 -0.20849999999999999          2.0341595169579931E-027
 -0.20799999999999999          2.5248954016991787E-027
 -0.20749999999999999          2.8809603943936166E-027
 -0.20699999999999999          2.9941982037235006E-027
 -0.20649999999999999          2.7476107294845331E-027
 -0.20599999999999999          2.0292338217608440E-027
 -0.20549999999999999          7.5047642042121089E-028
 -0.20499999999999999         -1.1322699169865066E-027
 -0.20449999999999999         -3.5949200850391351E-027
 -0.20399999999999999         -6.5249968134121078E-027
 -0.20349999999999999         -9.7067987855414741E-027
 -0.20299999999999999         -1.2816766974472154E-026
 -0.20249999999999999         -1.5433142410024205E-026
 -0.20199999999999999         -1.7063234464031066E-026
 -0.20149999999999998         -1.7190000019049131E-026
 -0.20099999999999998         -1.5336942359986870E-026
 -0.20049999999999998         -1.1147480697458213E-026
 -0.19999999999999998         -4.4711446364693982E-027
 -0.19949999999999998          4.5544266550921067E-027
 -0.19899999999999998          1.5439615739755143E-026
 -0.19849999999999998          2.7312622834318257E-026
 -0.19799999999999998          3.8938066172013946E-026
 -0.19749999999999998          4.8796604021510309E-026
 -0.19699999999999998          5.5232256061131900E-026
 -0.19649999999999998          5.6665109089625648E-026
 -0.19600000000000001          5.1856599094926949E-026
 -0.19550000000000001          4.0201587946467189E-026
 -0.19500000000000001          2.2009544890936152E-026
 -0.19450000000000001         -1.2735230368256539E-027
 -0.19400000000000001         -2.6957011415174615E-026
 -0.19350000000000001         -5.1165808313434986E-026
 -0.19300000000000000         -6.9114241118770718E-026
 -0.19250000000000000         -7.5621513995798497E-026
 -0.19200000000000000         -6.5868102147290395E-026
 -0.19150000000000000         -3.6355686478801338E-026
 -0.19100000000000000          1.4009538551734797E-026
 -0.19050000000000000          8.2834477250154453E-026
 -0.19000000000000000          1.6332270460510166E-025
 -0.18950000000000000          2.4371724627830013E-025
 -0.18900000000000000          3.0730661486523304E-025
 -0.18850000000000000          3.3318367960091218E-025
 -0.18800000000000000          2.9790078628064570E-025
 -0.18750000000000000          1.7808618691573574E-025
 -0.18700000000000000         -4.6022345466878386E-026
 -0.18650000000000000         -3.8631006347006152E-025
 -0.18600000000000000         -8.4211819693933526E-025
 -0.18550000000000000         -1.3956662152103536E-024
 -0.18500000000000000         -2.0081876535892099E-024
 -0.18450000000000000         -2.6175001301392017E-024
 -0.18400000000000000         -3.1377593478964958E-024
 -0.18350000000000000         -3.4621034768164617E-024
 -0.18300000000000000         -3.4687544014008315E-024
 -0.18250000000000000         -3.0308594789507280E-024
 -0.18200000000000000         -2.0300546282611479E-024
 -0.18149999999999999         -3.7325915740026265E-025
 -0.18099999999999999          1.9882912390838793E-024
 -0.18049999999999999          5.0392384002402038E-024
 -0.17999999999999999          8.6814953407263103E-024
 -0.17949999999999999          1.2719186879626232E-023
 -0.17899999999999999          1.6849666513819262E-023
 -0.17849999999999999          2.0663220266187422E-023
 -0.17799999999999999          2.3653693516904123E-023
 -0.17749999999999999          2.5241879250760277E-023
 -0.17699999999999999          2.4812473227897866E-023
 -0.17649999999999999          2.1764480949805916E-023
 -0.17599999999999999          1.5573474923701165E-023
 -0.17549999999999999          5.8626341215785091E-024
 -0.17499999999999999         -7.5218525211915703E-024
 -0.17449999999999999         -2.4436953796516242E-023
 -0.17399999999999999         -4.4377559793933789E-023
 -0.17349999999999999         -6.6427455277235781E-023
 -0.17299999999999999         -8.9234425081590110E-023
 -0.17249999999999999         -1.1101674153158913E-022
 -0.17199999999999999         -1.2960743166673831E-022
 -0.17149999999999999         -1.4254005192927384E-022
 -0.17099999999999999         -1.4717831692071431E-022
 -0.17049999999999998         -1.4088767604329668E-022
 -0.16999999999999998         -1.2124361515336649E-022
 -0.16949999999999998         -8.6268851454807906E-023
 -0.16899999999999998         -3.4686438339903881E-023
 -0.16849999999999998          3.3826187830217951E-023
 -0.16799999999999998          1.1840002048151901E-022
 -0.16749999999999998          2.1677392635866483E-022
 -0.16699999999999998          3.2514987058071757E-022
 -0.16649999999999998          4.3812398015099323E-022
 -0.16599999999999998          5.4870993856972961E-022
 -0.16549999999999998          6.4846852809901341E-022
 -0.16499999999999998          7.2775322764963804E-022
 -0.16449999999999998          7.7607560013692906E-022
 -0.16399999999999998          7.8258854732180075E-022
 -0.16349999999999998          7.3668119304524220E-022
 -0.16299999999999998          6.2866957895314699E-022
 -0.16249999999999998          4.5056295098256854E-022
 -0.16199999999999998          1.9688227041482449E-022
 -0.16149999999999998         -1.3450215744251092E-022
 -0.16099999999999998         -5.4154761722104317E-022
 -0.16049999999999998         -1.0172698532246462E-021
 -0.15999999999999998         -1.5490700474310356E-021
 -0.15949999999999998         -2.1182039074855417E-021
 -0.15899999999999997         -2.6994413713525479E-021
 -0.15849999999999997         -3.2609696411739607E-021
 -0.15799999999999997         -3.7645888691699323E-021
 -0.15749999999999997         -4.1662661369613296E-021
 -0.15699999999999997         -4.4170941448432198E-021
 -0.15649999999999997         -4.4647158863461265E-021
 -0.15599999999999997         -4.2552664680067303E-021
 -0.15549999999999997         -3.7358683717945540E-021
 -0.15499999999999997         -2.8577097565426669E-021
 -0.15449999999999997         -1.5797056433505826E-021
 -0.15399999999999997          1.2729208996030393E-022
 -0.15349999999999997          2.2758071141373838E-021
 -0.15299999999999997          4.8567019986491163E-021
 -0.15249999999999997          7.8339841564300047E-021
 -0.15200000000000000          1.1139721724209084E-020
 -0.15150000000000000          1.4669384847968068E-020
 -0.15100000000000000          1.8278050276526513E-020
 -0.15049999999999999          2.1777931653166432E-020
 -0.14999999999999999          2.4937751723771887E-020
 -0.14949999999999999          2.7484611062753150E-020
 -0.14899999999999999          2.9108731185945724E-020
 -0.14849999999999999          2.9471852315711268E-020
 -0.14799999999999999          2.8219533775196042E-020
 -0.14749999999999999          2.4997735229959144E-020
 -0.14699999999999999          1.9473790440115009E-020
 -0.14649999999999999          1.1361600902404457E-020
 -0.14599999999999999          4.5059645182160318E-022
 -0.14549999999999999         -1.3362388746445239E-020
 -0.14499999999999999         -3.0039524214348673E-020
 -0.14449999999999999         -4.9368279196175628E-020
 -0.14399999999999999         -7.0929809060009792E-020
 -0.14349999999999999         -9.4071549607649751E-020
 -0.14299999999999999         -1.1788693654624337E-019
 -0.14249999999999999         -1.4120514715313559E-019
 -0.14199999999999999         -1.6259365324927815E-019
 -0.14149999999999999         -1.8037640729136865E-019
 -0.14099999999999999         -1.9267035832425715E-019
 -0.14049999999999999         -1.9744242963737732E-019
 -0.13999999999999999         -1.9258725363140418E-019
 -0.13949999999999999         -1.7602736364236519E-019
 -0.13899999999999998         -1.4583378222242560E-019
 -0.13849999999999998         -1.0036510518634020E-019
 -0.13799999999999998         -3.8421368363936857E-020
 -0.13749999999999998          4.0592788875623231E-020
 -0.13699999999999998          1.3650248943524922E-019
 -0.13649999999999998          2.4820294815842253E-019
 -0.13599999999999998          3.7351554080207206E-019
 -0.13550000000000001          5.0907003940217304E-019
 -0.13500000000000001          6.5022473168191144E-019
 -0.13450000000000001          7.9103507423811718E-019
 -0.13400000000000001          9.2428215584217746E-019
 -0.13350000000000001          1.0415725116391044E-018
 -0.13300000000000001          1.1335144382662162E-018
 -0.13250000000000001          1.1899786218354187E-018
 -0.13200000000000001          1.2004467544169309E-018
 -0.13150000000000001          1.1544429057681093E-018
 -0.13100000000000001          1.0420494842363451E-018
 -0.13050000000000000          8.5448897280787613E-019
 -0.13000000000000000          5.8476534494400192E-019
 -0.12950000000000000          2.2833929584883431E-019
 -0.12900000000000000         -2.1618548679923917E-019
 -0.12850000000000000         -7.4639383185939558E-019
 -0.12800000000000000         -1.3554415940117576E-018
 -0.12750000000000000         -2.0315283098238931E-018
 -0.12700000000000000         -2.7574922563389878E-018
 -0.12650000000000000         -3.5105776233089387E-018
 -0.12600000000000000         -4.2623964970086509E-018
 -0.12550000000000000         -4.9791395003008456E-018
 -0.12499999999999999         -5.6220507430468653E-018
 -0.12449999999999999         -6.1482044798990024E-018
 -0.12399999999999999         -6.5115859601723843E-018
 -0.12349999999999998         -6.6645072358474627E-018
 -0.12299999999999998         -6.5593170037880157E-018
 -0.12249999999999998         -6.1504272025432745E-018
 -0.12199999999999998         -5.3965815340143780E-018
 -0.12149999999999998         -4.2633529504128797E-018
 -0.12099999999999998         -2.7257742010796018E-018
 -0.12049999999999998         -7.7104069005549955E-019
 -0.12000000000000000          1.5988256001058112E-018
 -0.11950000000000000          4.3644568222998239E-018
 -0.11899999999999999          7.4868935733977008E-018
 -0.11849999999999999          1.0905724697958860E-017
 -0.11799999999999999          1.4537816262175017E-017
 -0.11749999999999999          1.8276648578625426E-017
 -0.11699999999999999          2.1992548033837580E-017
 -0.11649999999999999          2.5533803929368578E-017
 -0.11599999999999999          2.8728850638069241E-017
 -0.11549999999999999          3.1389599027331473E-017
 -0.11499999999999999          3.3315919978631693E-017
 -0.11449999999999999          3.4301373684934491E-017
 -0.11399999999999999          3.4140038806019026E-017
 -0.11349999999999999          3.2634511611123735E-017
 -0.11299999999999999          2.9604812455273237E-017
 -0.11249999999999999          2.4898074949046124E-017
 -0.11199999999999999          1.8398767588001022E-017
 -0.11149999999999999          1.0039094862534629E-017
 -0.11099999999999999         -1.9071040894300786E-019
 -0.11049999999999999         -1.2232696602924362E-017
 -0.10999999999999999         -2.5952486761783672E-017
 -0.10949999999999999         -4.1132023859465860E-017
 -0.10899999999999999         -5.7464383639569680E-017
 -0.10849999999999999         -7.4550929464069229E-017
 -0.10799999999999998         -9.1901480869508625E-017
 -0.10749999999999998         -1.0893780221354267E-016
 -0.10699999999999998         -1.2500072332061189E-016
 -0.10649999999999998         -1.3936126992285131E-016
 -0.10599999999999998         -1.5123592955227569E-016
 -0.10549999999999998         -1.5980603877528107E-016
 -0.10499999999999998         -1.6424117822509163E-016
 -0.10449999999999998         -1.6372622563906952E-016
 -0.10399999999999998         -1.5749189504625385E-016
 -0.10349999999999998         -1.4484774244012582E-016
 -0.10299999999999998         -1.2521723480426763E-016
 -0.10249999999999998         -9.8173392837904286E-017
 -0.10199999999999998         -6.3474688474945568E-017
 -0.10149999999999998         -2.1099084890877714E-017
 -0.10099999999999998          2.8724520411835659E-017
 -0.10049999999999998          8.5489064402819974E-017
  -9.9999999999999978E-002     1.4838771577476519E-016
  -9.9499999999999977E-002     2.1629915232155467E-016
  -9.8999999999999977E-002     2.8778126611295088E-016
  -9.8499999999999976E-002     3.6107463230510375E-016
  -9.7999999999999976E-002     4.3411580555923928E-016
  -9.7499999999999976E-002     5.0456258764959681E-016
  -9.6999999999999975E-002     5.6983119121405517E-016
  -9.6499999999999975E-002     6.2714468947063658E-016
  -9.5999999999999974E-002     6.7359400915305136E-016
  -9.5500000000000002E-002     7.0621055570063706E-016
  -9.5000000000000001E-002     7.2204772033346529E-016
  -9.4500000000000001E-002     7.1827329790321514E-016
  -9.4000000000000000E-002     6.9226789820567936E-016
  -9.3500000000000000E-002     6.4172886729301619E-016
  -9.2999999999999999E-002     5.6477723974507583E-016
  -9.2499999999999999E-002     4.6006342370786714E-016
  -9.1999999999999998E-002     3.2687086216511274E-016
  -9.1499999999999998E-002     1.6521200869000556E-016
  -9.0999999999999998E-002    -2.4084763752408707E-017
  -9.0499999999999997E-002    -2.3930267524372023E-016
  -8.9999999999999997E-002    -4.7777985685025557E-016
  -8.9499999999999996E-002    -7.3587344020441914E-016
  -8.8999999999999996E-002    -1.0089467262752187E-015
  -8.8499999999999995E-002    -1.2913815115930342E-015
  -8.7999999999999995E-002    -1.5766178973071676E-015
  -8.7499999999999994E-002    -1.8572257109719212E-015
  -8.6999999999999994E-002    -2.1250042174851269E-015
  -8.6499999999999994E-002    -2.3711114760664229E-015
  -8.5999999999999993E-002    -2.5862286868491101E-015
  -8.5499999999999993E-002    -2.7607482038452931E-015
  -8.4999999999999992E-002    -2.8849921284255646E-015
  -8.4499999999999992E-002    -2.9494504684082544E-015
  -8.3999999999999991E-002    -2.9450439836075614E-015
  -8.3499999999999991E-002    -2.8633994744862433E-015
  -8.2999999999999990E-002    -2.6971322576810780E-015
  -8.2499999999999990E-002    -2.4401380949631190E-015
  -8.1999999999999990E-002    -2.0878757793585183E-015
  -8.1499999999999989E-002    -1.6376428876369070E-015
  -8.0999999999999989E-002    -1.0888314409994731E-015
  -8.0499999999999988E-002    -4.4315954896994642E-016
  -7.9999999999999988E-002     2.9513231204028155E-016
  -7.9499999999999987E-002     1.1191237626891093E-015
  -7.8999999999999987E-002     2.0191063875709384E-015
  -7.8499999999999986E-002     2.9825279021938344E-015
  -7.7999999999999986E-002     3.9939989067087256E-015
  -7.7499999999999986E-002     5.0353605644199298E-015
  -7.6999999999999985E-002     6.0858231593781916E-015
  -7.6499999999999985E-002     7.1221718835379141E-015
  -7.5999999999999984E-002     8.1190502376492971E-015
  -7.5499999999999984E-002     9.0493015617769087E-015
  -7.4999999999999983E-002     9.8843921304136354E-015
  -7.4499999999999983E-002     1.0594888717741036E-014
  -7.3999999999999982E-002     1.1151002561405830E-014
  -7.3499999999999982E-002     1.1523175333179689E-014
  -7.2999999999999982E-002     1.1682731790638183E-014
  -7.2499999999999981E-002     1.1602532778642764E-014
  -7.1999999999999981E-002     1.1257692464928664E-014
  -7.1499999999999980E-002     1.0626271992571685E-014
  -7.0999999999999980E-002     9.6900022754379106E-015
  -7.0499999999999979E-002     8.4349743281434639E-015
  -6.9999999999999979E-002     6.8523202367831539E-015
  -6.9499999999999978E-002     4.9388440115296270E-015
  -6.8999999999999978E-002     2.6976078451541320E-015
  -6.8499999999999978E-002     1.3843864948415615E-016
  -6.7999999999999977E-002    -2.7216131976235343E-015
  -6.7499999999999977E-002    -5.8579476723765650E-015
  -6.6999999999999976E-002    -9.2381532235813479E-015
  -6.6499999999999976E-002    -1.2821882526755916E-014
  -6.5999999999999975E-002    -1.6560837082202362E-014
  -6.5499999999999975E-002    -2.0398899680198682E-014
  -6.4999999999999974E-002    -2.4272386529712064E-014
  -6.4499999999999974E-002    -2.8110464584232846E-014
  -6.4000000000000001E-002    -3.1835701467195870E-014
  -6.3500000000000001E-002    -3.5364794330687407E-014
  -6.3000000000000000E-002    -3.8609447278739600E-014
  -6.2500000000000000E-002    -4.1477376781530188E-014
  -6.2000000000000000E-002    -4.3873526974631416E-014
  -6.1499999999999999E-002    -4.5701407913691179E-014
  -6.0999999999999999E-002    -4.6864588264848597E-014
  -6.0499999999999998E-002    -4.7268286902412513E-014
  -5.9999999999999998E-002    -4.6821199457744544E-014
  -5.9499999999999997E-002    -4.5437317129210371E-014
  -5.8999999999999997E-002    -4.3037914423555875E-014
  -5.8499999999999996E-002    -3.9553621589294612E-014
  -5.7999999999999996E-002    -3.4926497505034585E-014
  -5.7499999999999996E-002    -2.9112177976540779E-014
  -5.6999999999999995E-002    -2.2082037700282881E-014
  -5.6499999999999995E-002    -1.3825256897220857E-014
  -5.5999999999999994E-002    -4.3508812595426476E-015
  -5.5499999999999994E-002     6.3102889391524625E-015
  -5.4999999999999993E-002     1.8103904771510103E-014
  -5.4499999999999993E-002     3.0950501439300799E-014
  -5.3999999999999992E-002     4.4744184299281002E-014
  -5.3499999999999992E-002     5.9351536982257258E-014
  -5.2999999999999992E-002     7.4611030662697940E-014
  -5.2499999999999991E-002     9.0332570880985429E-014
  -5.1999999999999991E-002     1.0629773332561645E-013
  -5.1499999999999990E-002     1.2226026233615834E-013
  -5.0999999999999990E-002     1.3794716774559888E-013
  -5.0499999999999989E-002     1.5306051646665027E-013
  -4.9999999999999989E-002     1.6727941819470870E-013
  -4.9499999999999988E-002     1.8026297931098776E-013
  -4.8999999999999988E-002     1.9165374981384724E-013
  -4.8499999999999988E-002     2.0108166474277006E-013
  -4.7999999999999987E-002     2.0816874035475841E-013
  -4.7499999999999987E-002     2.1253430842834820E-013
  -4.6999999999999986E-002     2.1380083929716144E-013
  -4.6499999999999986E-002     2.1160028949550016E-013
  -4.5999999999999985E-002     2.0558079075424371E-013
  -4.5499999999999985E-002     1.9541405353893502E-013
  -4.4999999999999984E-002     1.8080280109806828E-013
  -4.4499999999999984E-002     1.6148860536868243E-013
  -4.3999999999999984E-002     1.3725984429415264E-013
  -4.3499999999999983E-002     1.0795971706700766E-013
  -4.2999999999999983E-002     7.3494089965660474E-014
  -4.2499999999999982E-002     3.3839270712880880E-014
  -4.1999999999999982E-002    -1.0950795245763401E-014
  -4.1499999999999981E-002    -6.0737574218695009E-014
  -4.0999999999999981E-002    -1.1529174072328556E-013
  -4.0499999999999980E-002    -1.7428789785293524E-013
  -3.9999999999999980E-002    -2.3730018007235180E-013
  -3.9499999999999980E-002    -3.0379883373446394E-013
  -3.8999999999999979E-002    -3.7314815240738560E-013
  -3.8499999999999979E-002    -4.4460598081673988E-013
  -3.7999999999999978E-002    -5.1732439436862929E-013
  -3.7499999999999978E-002    -5.9035219029456170E-013
  -3.6999999999999977E-002    -6.6263944319413501E-013
  -3.6499999999999977E-002    -7.3304335471282094E-013
  -3.5999999999999976E-002    -8.0033642173060554E-013
  -3.5499999999999976E-002    -8.6321638669536790E-013
  -3.4999999999999976E-002    -9.2031811246601449E-013
  -3.4499999999999975E-002    -9.7022787456715268E-013
  -3.3999999999999975E-002    -1.0114991840197394E-012
  -3.3499999999999974E-002    -1.0426705383492992E-012
  -3.2999999999999974E-002    -1.0622852047755437E-012
  -3.2499999999999973E-002    -1.0689129101195255E-012
  -3.1999999999999973E-002    -1.0611726231574191E-012
  -3.1500000000000000E-002    -1.0377572627530040E-012
  -3.1000000000000000E-002    -9.9745911583559811E-013
  -3.0499999999999999E-002    -9.3919662456669342E-013
  -2.9999999999999999E-002    -8.6204200974647385E-013
  -2.9499999999999998E-002    -7.6524896123852735E-013
  -2.8999999999999998E-002    -6.4828081874440402E-013
  -2.8499999999999998E-002    -5.1083822685339707E-013
  -2.7999999999999997E-002    -3.5288699615734621E-013
  -2.7499999999999997E-002    -1.7468426971493129E-013
  -2.6999999999999996E-002     2.3196084426365577E-014
  -2.6499999999999996E-002     2.3984006878532860E-013
  -2.5999999999999995E-002     4.7397172231654898E-013
  -2.5499999999999995E-002     7.2393398249737968E-013
  -2.4999999999999994E-002     9.8767271093589024E-013
  -2.4499999999999994E-002     1.2627228589367419E-012
  -2.3999999999999994E-002     1.5461997842513510E-012
  -2.3499999999999993E-002     1.8347940556739743E-012
  -2.2999999999999993E-002     2.1247697725671321E-012
  -2.2499999999999992E-002     2.4119688270736719E-012
  -2.1999999999999992E-002     2.6918202497905277E-012
  -2.1499999999999991E-002     2.9593548858387175E-012
  -2.0999999999999991E-002     3.2092235158537593E-012
  -2.0499999999999990E-002     3.4357258387211302E-012
  -1.9999999999999990E-002     3.6328414515101133E-012
  -1.9499999999999990E-002     3.7942682141340003E-012
  -1.8999999999999989E-002     3.9134687718879203E-012
  -1.8499999999999989E-002     3.9837214144657789E-012
  -1.7999999999999988E-002     3.9981791339546346E-012
  -1.7499999999999988E-002     3.9499343762874178E-012
  -1.6999999999999987E-002     3.8320910240706326E-012
  -1.6499999999999987E-002     3.6378418326331779E-012
  -1.5999999999999986E-002     3.3605517631136396E-012
  -1.5499999999999986E-002     2.9938505640118860E-012
  -1.4999999999999986E-002     2.5317249984888999E-012
  -1.4499999999999985E-002     1.9686214043680982E-012
  -1.3999999999999985E-002     1.2995504778221071E-012
  -1.3499999999999984E-002     5.2019509283492412E-013
  -1.2999999999999984E-002    -3.7297527719544114E-013
  -1.2499999999999983E-002    -1.3825898007423445E-012
  -1.1999999999999983E-002    -2.5102572795840995E-012
  -1.1499999999999982E-002    -3.7564479802230840E-012
  -1.0999999999999982E-002    -5.1203714797472990E-012
  -1.0499999999999982E-002    -6.5998604758547421E-012
  -9.9999999999999811E-003    -8.1912456421510251E-012
  -9.4999999999999807E-003    -9.8892432131625569E-012
  -8.9999999999999802E-003    -1.1686830449771321E-011
  -8.4999999999999798E-003    -1.3575143564524907E-011
  -7.9999999999999793E-003    -1.5543358818951592E-011
  -7.4999999999999789E-003    -1.7578591757067194E-011
  -6.9999999999999785E-003    -1.9665799469254967E-011
  -6.4999999999999780E-003    -2.1787676401407021E-011
  -5.9999999999999776E-003    -2.3924572892024072E-011
  -5.4999999999999771E-003    -2.6054406781375486E-011
  -4.9999999999999767E-003    -2.8152595361985668E-011
  -4.4999999999999762E-003    -3.0191967383667622E-011
  -3.9999999999999758E-003    -3.2142715102882516E-011
  -3.4999999999999754E-003    -3.3972326939078735E-011
  -2.9999999999999749E-003    -3.5645544415696089E-011
  -2.4999999999999745E-003    -3.7124301744821436E-011
  -1.9999999999999740E-003    -3.8367689165055047E-011
  -1.4999999999999736E-003    -3.9331914513604702E-011
  -9.9999999999997313E-004    -3.9970311138716144E-011
  -4.9999999999997269E-004    -4.0233218181255263E-011
   0.0000000000000000         -4.0068031246217862E-011
   5.0000000000000044E-004    -3.9419122536543804E-011
   1.0000000000000009E-003    -3.8227878882808286E-011
   1.5000000000000013E-003    -3.6432570011266505E-011
   2.0000000000000018E-003    -3.3968398858015133E-011
   2.5000000000000022E-003    -3.0767388007828546E-011
   3.0000000000000027E-003    -2.6758413374810013E-011
   3.5000000000000031E-003    -2.1867104877276977E-011
   4.0000000000000036E-003    -1.6015644283774189E-011
   4.5000000000000040E-003    -9.1229311760044231E-012
   5.0000000000000044E-003    -1.1042561639710331E-012
   5.5000000000000049E-003     8.1286850000510644E-012
   6.0000000000000053E-003     1.8667988579695308E-011
   6.5000000000000058E-003     3.0609743232034681E-011
   7.0000000000000062E-003     4.4054165885971194E-011
   7.5000000000000067E-003     5.9105922743514991E-011
   8.0000000000000071E-003     7.5874263836805794E-011
   8.5000000000000075E-003     9.4473334432697619E-011
   9.0000000000000080E-003     1.1502270052496368E-010
   9.5000000000000084E-003     1.3764736680993506E-010
   1.0000000000000009E-002     1.6247853790299639E-010
   1.0500000000000009E-002     1.8965391839455136E-010
   1.1000000000000010E-002     2.1931815877774696E-010
   1.1500000000000010E-002     2.5162362746976901E-010
   1.2000000000000011E-002     2.8673078464928492E-010
   1.2500000000000011E-002     3.2480918178539584E-010
   1.3000000000000012E-002     3.6603770972598799E-010
   1.3500000000000012E-002     4.1060565578165525E-010
   1.4000000000000012E-002     4.5871401664377162E-010
   1.4500000000000013E-002     5.1057542692948160E-010
   1.5000000000000013E-002     5.6641609917651233E-010
   1.5500000000000014E-002     6.2647654193765671E-010
   1.6000000000000014E-002     6.9101227115627055E-010
   1.6500000000000015E-002     7.6029635551079721E-010
   1.7000000000000015E-002     8.3461881843706630E-010
   1.7500000000000016E-002     9.1429011694574712E-010
   1.8000000000000016E-002     9.9964052578811870E-010
   1.8500000000000016E-002     1.0910235164523830E-009
   1.9000000000000017E-002     1.1888164448253017E-009
   1.9500000000000017E-002     1.2934227461003717E-009
   2.0000000000000018E-002     1.4052740622150132E-009
   2.0500000000000018E-002     1.5248305582768624E-009
   2.1000000000000019E-002     1.6525854568129422E-009
   2.1500000000000019E-002     1.7890658323675135E-009
   2.2000000000000020E-002     1.9348351158682342E-009
   2.2500000000000020E-002     2.0904951574052632E-009
   2.3000000000000020E-002     2.2566904131393340E-009
   2.3500000000000021E-002     2.4341086377370412E-009
   2.4000000000000021E-002     2.6234842474224554E-009
   2.4500000000000022E-002     2.8256028078631647E-009
   2.5000000000000022E-002     3.0413035539046338E-009
   2.5500000000000023E-002     3.2714811894195894E-009
   2.6000000000000023E-002     3.5170896705734858E-009
   2.6500000000000024E-002     3.7791501034257488E-009
   2.7000000000000024E-002     4.0587477312422941E-009
   2.7500000000000024E-002     4.3570412139415631E-009
   2.8000000000000025E-002     4.6752648775492939E-009
   2.8500000000000025E-002     5.0147335312068113E-009
   2.9000000000000026E-002     5.3768502283165225E-009
   2.9500000000000026E-002     5.7631038540868141E-009
   3.0000000000000027E-002     6.1750823643416629E-009
   3.0500000000000027E-002     6.6144755272549890E-009
   3.1000000000000028E-002     7.0830796077722389E-009
   3.1500000000000028E-002     7.5828028298582447E-009
   3.2000000000000028E-002     8.1156772819975913E-009