 -0.23999999999999999          0.0000000000000000     
 -0.23949999999999999          0.0000000000000000     
 -0.23899999999999999          0.0000000000000000     
 -0.23849999999999999          0.0000000000000000     
 -0.23799999999999999         -9.4377664061349644E-013
 -0.23749999999999999         -7.6569552647921666E-012
 -0.23699999999999999         -3.3638847746874526E-011
 -0.23649999999999999         -1.0537737199608911E-010
 -0.23599999999999999         -2.6171051824556647E-010
 -0.23549999999999999         -5.4307171328100490E-010
 -0.23499999999999999         -9.6740473728100047E-010
 -0.23449999999999999         -1.4944292381445521E-009
 -0.23399999999999999         -1.9868259775101650E-009
 -0.23349999999999999         -2.1836374593606469E-009
 -0.23299999999999998         -1.7049083264524958E-009
 -0.23249999999999998         -1.0468242214964463E-010
 -0.23199999999999998          3.0194126246368595E-009
 -0.23149999999999998          7.8670341332915955E-009
 -0.23099999999999998          1.4252173645361706E-008
 -0.23049999999999998          2.1439487414535162E-008
 -0.22999999999999998          2.8053598341487413E-008
 -0.22949999999999998          3.2114054518123016E-008
 -0.22899999999999998          3.1233615744408116E-008
 -0.22849999999999998          2.2989328537070776E-008
 -0.22799999999999998          5.4386102184863102E-009
 -0.22749999999999998         -2.2286550227159164E-008
 -0.22699999999999998         -5.9406264406679736E-008
 -0.22649999999999998         -1.0305812318990124E-007
 -0.22599999999999998         -1.4811690571017754E-007
 -0.22549999999999998         -1.8736246439184527E-007
 -0.22499999999999998         -2.1204734462424216E-007
 -0.22449999999999998         -2.1286278947129402E-007
 -0.22399999999999998         -1.8124124636898412E-007
 -0.22349999999999998         -1.1087618681034634E-007
 -0.22299999999999998          7.0808692850965830E-010
 -0.22249999999999998          1.5073992486739210E-007
 -0.22199999999999998          3.3015904208695651E-007
 -0.22150000000000000          5.2317376149160271E-007
 -0.22100000000000000          7.0761845968595772E-007
 -0.22050000000000000          8.5626537420566461E-007
 -0.22000000000000000          9.3916688428716088E-007
 -0.21950000000000000          9.2698834367481616E-007
 -0.21900000000000000          7.9514613424745642E-007
 -0.21850000000000000          5.2838497579650353E-007
 -0.21800000000000000          1.2526121723836621E-007
 -0.21750000000000000         -3.9816585800292489E-007
 -0.21700000000000000         -1.0061999911912578E-006
 -0.21650000000000000         -1.6436763154063888E-006
 -0.21600000000000000         -2.2390087766098863E-006
 -0.21550000000000000         -2.7103460629310863E-006
 -0.21500000000000000         -2.9746259341580565E-006
 -0.21450000000000000         -2.9587440582259457E-006
 -0.21400000000000000         -2.6115273217151849E-006
 -0.21350000000000000         -1.9147598601629653E-006
 -0.21299999999999999         -8.9130194039828092E-007
 -0.21249999999999999          3.9153093581100489E-007
 -0.21199999999999999          1.8246950086179789E-006
 -0.21149999999999999          3.2667998930960922E-006
 -0.21099999999999999          4.5595955813813151E-006
 -0.21049999999999999          5.5479206311373149E-006
 -0.20999999999999999          6.1013704930085645E-006
 -0.20949999999999999          6.1343266748581620E-006
 -0.20899999999999999          5.6207818307518137E-006
 -0.20849999999999999          4.6009529549146540E-006
 -0.20799999999999999          3.1777164010610937E-006
 -0.20749999999999999          1.5026027174435219E-006
 -0.20699999999999999         -2.4711032225693272E-007
 -0.20649999999999999         -1.8968299169029421E-006
 -0.20599999999999999         -3.3038978708697312E-006
 -0.20549999999999999         -4.3823222966399503E-006
 -0.20499999999999999         -5.1180226143326248E-006
 -0.20449999999999999         -5.5708809853597267E-006
 -0.20399999999999999         -5.8621145664696949E-006
 -0.20349999999999999         -6.1479901459155609E-006
 -0.20299999999999999         -6.5837169369130945E-006
 -0.20249999999999999         -7.2834422348328614E-006
 -0.20199999999999999         -8.2835988782561192E-006
 -0.20149999999999998         -9.5169456450051980E-006
 -0.20099999999999998         -1.0803174524540003E-005
 -0.20049999999999998         -1.1859648103989832E-005
 -0.19999999999999998         -1.2332314641438663E-005
 -0.19949999999999998         -1.1843310060036675E-005
 -0.19899999999999998         -1.0048625528307977E-005
 -0.19849999999999998         -6.6968524154701271E-006
 -0.19799999999999998         -1.6794826012719963E-006
 -0.19749999999999998          4.9359814838336859E-006
 -0.19699999999999998          1.2896132755000809E-005
 -0.19649999999999998          2.1777425662132913E-005
 -0.19600000000000001          3.1025480574020149E-005
 -0.19550000000000001          4.0011751929644289E-005
 -0.19500000000000001          4.8098296102404043E-005
 -0.19450000000000001          5.4699608282684570E-005
 -0.19400000000000001          5.9330706169779461E-005
 -0.19350000000000001          6.1633261035924685E-005
 -0.19300000000000000          6.1375508527532490E-005
 -0.19250000000000000          5.8426153834153464E-005
 -0.19200000000000000          5.2708483935716557E-005
 -0.19150000000000000          4.4144784220055515E-005
 -0.19100000000000000          3.2604440087208607E-005
 -0.19050000000000000          1.7869463875224963E-005
 -0.19000000000000000         -3.6934824275625588E-007
 -0.18950000000000000         -2.2477650303218984E-005
 -0.18900000000000000         -4.8800431184004754E-005
 -0.18850000000000000         -7.9546565812651778E-005
 -0.18800000000000000         -1.1464416437868504E-004
 -0.18750000000000000         -1.5358409831372051E-004
 -0.18700000000000000         -1.9527032637935246E-004
 -0.18650000000000000         -2.3789966246792123E-004
 -0.18600000000000000         -2.7889018276029372E-004
 -0.18550000000000000         -3.1487707262970897E-004
 -0.18500000000000000         -3.4178514910688818E-004
 -0.18450000000000000         -3.5498256487837389E-004
 -0.18400000000000000         -3.4951138427083092E-004
 -0.18350000000000000         -3.2038183109117343E-004
 -0.18300000000000000         -2.6291275694342495E-004
 -0.18250000000000000         -1.7309159038654933E-004
 -0.18200000000000000         -4.7931588486931358E-005
 -0.18149999999999999          1.1420601211032983E-004
 -0.18099999999999999          3.1334486249255688E-004
 -0.18049999999999999          5.4770073109197703E-004
 -0.17999999999999999          8.1358339205820480E-004
 -0.17949999999999999          1.1053900499075698E-003
 -0.17899999999999999          1.4156993124310514E-003
 -0.17849999999999999          1.7354521663734232E-003
 -0.17799999999999999          2.0542114741251417E-003
 -0.17749999999999999          2.3604807625413914E-003
 -0.17699999999999999          2.6420688188046131E-003
 -0.17649999999999999          2.8864736622253237E-003
 -0.17599999999999999          3.0812816752929274E-003
 -0.17549999999999999          3.2145584900180333E-003
 -0.17499999999999999          3.2752250491450115E-003
 -0.17449999999999999          3.2534109864397406E-003
 -0.17399999999999999          3.1407931708318550E-003
 -0.17349999999999999          2.9309052911924011E-003
 -0.17299999999999999          2.6194163632877500E-003
 -0.17249999999999999          2.2044074761150756E-003
 -0.17199999999999999          1.6865973871545809E-003
 -0.17149999999999999          1.0695441587256298E-003
 -0.17099999999999999          3.5980190147040644E-004
 -0.17049999999999998         -4.3297824688997427E-004
 -0.16999999999999998         -1.2959954154694708E-003
 -0.16949999999999998         -2.2134250366559992E-003
 -0.16899999999999998         -3.1664907375053026E-003
 -0.16849999999999998         -4.1338156071136500E-003
 -0.16799999999999998         -5.0917724256819268E-003
 -0.16749999999999998         -6.0149625010434693E-003
 -0.16699999999999998         -6.8768308571096337E-003
 -0.16649999999999998         -7.6502935706163656E-003
 -0.16599999999999998         -8.3084235087309069E-003
 -0.16549999999999998         -8.8250686758971769E-003
 -0.16499999999999998         -9.1754865593841640E-003
 -0.16449999999999998         -9.3368288162200344E-003
 -0.16399999999999998         -9.2886090658472233E-003
 -0.16349999999999998         -9.0127794613560543E-003
 -0.16299999999999998         -8.4939238241380915E-003
 -0.16249999999999998         -7.7190443749617279E-003
 -0.16199999999999998         -6.6774304624092852E-003
 -0.16149999999999998         -5.3602036058871469E-003
 -0.16099999999999998         -3.7599172829886236E-003
 -0.16049999999999998         -1.8701883840084831E-003
 -0.15999999999999998          3.1472655370321651E-004
 -0.15949999999999998          2.8003037322910027E-003
 -0.15899999999999997          5.5921106029005602E-003
 -0.15849999999999997          8.6958547575380143E-003
 -0.15799999999999997          1.2117450005130467E-002
 -0.15749999999999997          1.5863106422400811E-002
 -0.15699999999999997          1.9939132854099137E-002
 -0.15649999999999997          2.4351864789769792E-002
 -0.15599999999999997          2.9108362326861002E-002
 -0.15549999999999997          3.4215509784152533E-002
 -0.15499999999999997          3.9681035251924256E-002
 -0.15449999999999997          4.5513716003999852E-002
 -0.15399999999999997          5.1723798393080299E-002
 -0.15349999999999997          5.8323641379508226E-002
 -0.15299999999999997          6.5328385278971182E-002
 -0.15249999999999997          7.2756423569086029E-002
 -0.15200000000000000          8.0629983301657229E-002
 -0.15150000000000000          8.8975560267437401E-002
 -0.15100000000000000          9.7823622239539915E-002
 -0.15049999999999999         0.10720832578343296     
 -0.14999999999999999         0.11716790471637670     
 -0.14949999999999999         0.12774248859411455     
 -0.14899999999999999         0.13897505346588088     
 -0.14849999999999999         0.15090877689928384     
 -0.14799999999999999         0.16358711844577095     
 -0.14749999999999999         0.17705270445239002     
 -0.14699999999999999         0.19134596330525402     
 -0.14649999999999999         0.20650689770008673     
 -0.14599999999999999         0.22257264631488505     
 -0.14549999999999999         0.23958027188298076     
 -0.14499999999999999         0.25756477276921363     
 -0.14449999999999999         0.27656414125417339     
 -0.14399999999999999         0.29661819836556635     
 -0.14349999999999999         0.31777039938975382     
 -0.14299999999999999         0.34007077541413694     
 -0.14249999999999999         0.36357755371200923     
 -0.14199999999999999         0.38835906636345652     
 -0.14149999999999999         0.41449443515665318     
 -0.14099999999999999         0.44207673691733151     
 -0.14049999999999999         0.47121022246032229     
 -0.13999999999999999         0.50201650588073077     
 -0.13949999999999999         0.53462907139998328     
 -0.13899999999999998         0.56920226073749747     
 -0.13849999999999998         0.60589685043734653     
 -0.13799999999999998         0.64489431662910357     
 -0.13749999999999998         0.68639080101508410     
 -0.13699999999999998         0.73059365814915611     
 -0.13649999999999998         0.77772168447136791     
 -0.13599999999999998         0.82801197477665545     
 -0.13550000000000001         0.88171144288932224     
 -0.13500000000000001         0.93907452571589234     
 -0.13450000000000001          1.0003763610989425     
 -0.13400000000000001          1.0658888831331030     
 -0.13350000000000001          1.1359079312557545     
 -0.13300000000000001          1.2107318883372491     
 -0.13250000000000001          1.2906738597418261     
 -0.13200000000000001          1.3760583541328928     
 -0.13150000000000001          1.4672187806240857     
 -0.13100000000000001          1.5644968407594018     
 -0.13050000000000000          1.6682628907046908     
 -0.13000000000000000          1.7788887626717789     
 -0.12950000000000000          1.8967765101522853     
 -0.12900000000000000          2.0223323178685866     
 -0.12850000000000000          2.1560083517500068     
 -0.12800000000000000          2.2982590579612965     
 -0.12750000000000000          2.4495849422586078     
 -0.12700000000000000          2.6105196639502140     
 -0.12650000000000000          2.7816179286641036     
 -0.12600000000000000          2.9634887089513260     
 -0.12550000000000000          3.1567657007492373     
 -0.12499999999999999          3.3621372405723164     
 -0.12449999999999999          3.5803168046500531     
 -0.12399999999999999          3.8120735962073855     
 -0.12349999999999998          4.0582290322280405     
 -0.12299999999999998          4.3196298759348801     
 -0.12249999999999998          4.5971923815273419     
 -0.12199999999999998          4.8918889147828182     
 -0.12149999999999998          5.2047121445916069     
 -0.12099999999999998          5.5367347608719815     
 -0.12049999999999998          5.8890912865432252     
 -0.12000000000000000          6.2629857349261240     
 -0.11950000000000000          6.6596600173312712     
 -0.11899999999999999          7.0804978676316424     
 -0.11849999999999999          7.5268886849382834     
 -0.11799999999999999          8.0003500183288079     
 -0.11749999999999999          8.5024774036109285     
 -0.11699999999999999          9.0349540197149043     
 -0.11649999999999999          9.5995283753828353     
 -0.11599999999999999          10.198165457498700     
 -0.11549999999999999          10.832794212164423     
 -0.11499999999999999          11.505513552734900     
 -0.11449999999999999          12.218544053228534     
 -0.11399999999999999          12.974160235442355     
 -0.11349999999999999          13.774815291953967     
 -0.11299999999999999          14.623065406853691     
 -0.11249999999999999          15.521539909417708     
 -0.11199999999999999          16.473109715085702     
 -0.11149999999999999          17.480693322062681     
 -0.11099999999999999          18.547409419817896     
 -0.11049999999999999          19.676544117145646     
 -0.10999999999999999          20.871562416448235     
 -0.10949999999999999          22.136050837162820     
 -0.10899999999999999          23.473920699026408     
 -0.10849999999999999          24.889207277432611     
 -0.10799999999999998          26.386109730714260     
 -0.10749999999999998          27.969344992512802     
 -0.10699999999999998          29.643519273436226     
 -0.10649999999999998          31.413687152606670     
 -0.10599999999999998          33.285216576041265     
 -0.10549999999999998          35.263642107367716     
 -0.10499999999999998          37.354935854286239     
 -0.10449999999999998          39.565163786960241     
 -0.10399999999999998          41.900969314860390     
 -0.10349999999999998          44.369063916166965     
 -0.10299999999999998          46.976623361736387     
 -0.10249999999999998          49.731319487147502     
 -0.10199999999999998          52.640932091371738     
 -0.10149999999999998          55.713751431075707     
 -0.10099999999999998          58.958491898533723     
 -0.10049999999999998          62.384344515347408     
  -9.9999999999999978E-002     66.000749812821851     
  -9.9499999999999977E-002     69.817749050614765     
  -9.8999999999999977E-002     73.845858458804599     
  -9.8499999999999976E-002     78.096394077913118     
  -9.7999999999999976E-002     82.580384665404580     
  -9.7499999999999976E-002     87.310235977859890     
  -9.6999999999999975E-002     92.298952414454732     
  -9.6499999999999975E-002     97.559365266982326     
  -9.5999999999999974E-002     103.10598550507981     
  -9.5500000000000002E-002     108.95300840500175     
  -9.5000000000000001E-002     115.11602410216111     
  -9.4500000000000001E-002     121.61150852412953     
  -9.4000000000000000E-002     128.45604069500092     
  -9.3500000000000000E-002     135.66729762835584     
  -9.2999999999999999E-002     143.26430755326652     
  -9.2499999999999999E-002     151.26646082416175     
  -9.1999999999999998E-002     159.69465451845520     
  -9.1499999999999998E-002     168.56988385998079     
  -9.0999999999999998E-002     177.91454582099868     
  -9.0499999999999997E-002     187.75242372868661     
  -8.9999999999999997E-002     198.10863168771391     
  -8.9499999999999996E-002     209.00729870349244     
  -8.8999999999999996E-002     220.47685272589302     
  -8.8499999999999995E-002     232.54472552135053     
  -8.7999999999999995E-002     245.24041476041862     
  -8.7499999999999994E-002     258.59510479805755     
  -8.6999999999999994E-002     272.64044893064874     
  -8.6499999999999994E-002     287.41004130242573     
  -8.5999999999999993E-002     302.94003504287275     
  -8.5499999999999993E-002     319.26620173140452     
  -8.4999999999999992E-002     336.42734429807183     
  -8.4499999999999992E-002     354.46378661067547     
  -8.3999999999999991E-002     373.41699096767877     
  -8.3499999999999991E-002     393.33118411849966     
  -8.2999999999999990E-002     414.25149064528478     
  -8.2499999999999990E-002     436.22613822414633     
  -8.1999999999999990E-002     459.30478235763064     
  -8.1499999999999989E-002     483.54016691546224     
  -8.0999999999999989E-002     508.98487269406780     
  -8.0499999999999988E-002     535.69726615468812     
  -7.9999999999999988E-002     563.73554636551194     
  -7.9499999999999987E-002     593.16183261988749     
  -7.8999999999999987E-002     624.04062322287950     
  -7.8499999999999986E-002     656.43599830127278     
  -7.7999999999999986E-002     690.42176326500362     
  -7.7499999999999986E-002     726.06801444667485     
  -7.6999999999999985E-002     763.45162224348610     
  -7.6499999999999985E-002     802.65208818672545     
  -7.5999999999999984E-002     843.74929016457804     
  -7.5499999999999984E-002     886.83065088200578     
  -7.4999999999999983E-002     931.98503415435471     
  -7.4499999999999983E-002     979.30611778131902     
  -7.3999999999999982E-002     1028.8882815101333     
  -7.3499999999999982E-002     1080.8364736504996     
  -7.2999999999999982E-002     1135.2524317239486     
  -7.2499999999999981E-002     1192.2430040423783     
  -7.1999999999999981E-002     1251.9256710327586     
  -7.1499999999999980E-002     1314.4163167593833     
  -7.0999999999999980E-002     1379.8438345479749     
  -7.0499999999999979E-002     1448.3266913111256     
  -6.9999999999999979E-002     1519.9987340533653     
  -6.9499999999999978E-002     1595.0016436623405     
  -6.8999999999999978E-002     1673.4788232930568     
  -6.8499999999999978E-002     1755.5765787777068     
  -6.7999999999999977E-002     1841.4498165175592     
  -6.7499999999999977E-002     1931.2566592658700     
  -6.6999999999999976E-002     2025.1679784248572     
  -6.6499999999999976E-002     2123.3553875429379     
  -6.5999999999999975E-002     2225.9974366683100     
  -6.5499999999999975E-002     2333.2794021777308     
  -6.4999999999999974E-002     2445.3955388234763     
  -6.4499999999999974E-002     2562.5521459773154     
  -6.4000000000000001E-002     2684.9469504713998     
  -6.3500000000000001E-002     2812.8072548495538     
  -6.3000000000000000E-002     2946.3406444255461     
  -6.2500000000000000E-002     3085.7929022593826     
  -6.2000000000000000E-002     3231.3931064701737     
  -6.1499999999999999E-002     3383.4006757811412     
  -6.0999999999999999E-002     3542.0647301173767     
  -6.0499999999999998E-002     3707.6513100263946     
  -5.9999999999999998E-002     3880.4546973326615     
  -5.9499999999999997E-002     4060.7342682940616     
  -5.8999999999999997E-002     4248.8130574900297     
  -5.8499999999999996E-002     4444.9841715258153     
  -5.7999999999999996E-002     4649.5568258908097     
  -5.7499999999999996E-002     4862.8701936879625     
  -5.6999999999999995E-002     5085.2764789491139     
  -5.6499999999999995E-002     5317.1011333811039     
  -5.5999999999999994E-002     5558.7209732226147     
  -5.5499999999999994E-002     5810.5212706424136     
  -5.4999999999999993E-002     6072.8916858234843     
  -5.4499999999999993E-002     6346.2015063235085     
  -5.3999999999999992E-002     6630.8862388812577     
  -5.3499999999999992E-002     6927.3835392533292     
  -5.2999999999999992E-002     7236.1207795085265     
  -5.2499999999999991E-002     7557.5636990908279     
  -5.1999999999999991E-002     7892.1735589724303     
  -5.1499999999999990E-002     8240.4335185377568     
  -5.0999999999999990E-002     8602.8451961856954     
  -5.0499999999999989E-002     8979.9594767510280     
  -4.9999999999999989E-002     9372.2672480223409     
  -4.9499999999999988E-002     9780.3346863948063     
  -4.8999999999999988E-002     10204.745347896762     
  -4.8499999999999988E-002     10646.086575065314     
  -4.7999999999999987E-002     11104.944706005383     
  -4.7499999999999987E-002     11581.907967772117     
  -4.6999999999999986E-002     12077.648564783671     
  -4.6499999999999986E-002     12592.862130507954     
  -4.5999999999999985E-002     13128.174785037871     
  -4.5499999999999985E-002     13684.294929454376     
  -4.4999999999999984E-002     14261.979522260342     
  -4.4499999999999984E-002     14861.929601044576     
  -4.3999999999999984E-002     15484.942822085053     
  -4.3499999999999983E-002     16131.757268255998     
  -4.2999999999999983E-002     16803.157591140109     
  -4.2499999999999982E-002     17500.017417953248     
  -4.1999999999999982E-002     18223.166535418422     
  -4.1499999999999981E-002     18973.536299826039     
  -4.0999999999999981E-002     19751.913717714429     
  -4.0499999999999980E-002     20559.317071453086     
  -3.9999999999999980E-002     21396.664808085283     
  -3.9499999999999980E-002     22264.916036115123     
  -3.8999999999999979E-002     23165.079315230680     
  -3.8499999999999979E-002     24098.154727656824     
  -3.7999999999999978E-002     25065.234124746159     
  -3.7499999999999978E-002     26067.329730887541     
  -3.6999999999999977E-002     27105.618431406525     
  -3.6499999999999977E-002     28181.226788168278     
  -3.5999999999999976E-002     29295.216882239634     
  -3.5499999999999976E-002     30448.821608534257     
  -3.4999999999999976E-002     31643.304185709087     
  -3.4499999999999975E-002     32879.879424327984     
  -3.3999999999999975E-002     34159.795736587228     
  -3.3499999999999974E-002     35484.447763944598     
  -3.2999999999999974E-002     36855.093277637934     
  -3.2499999999999973E-002     38273.166621308526     
  -3.1999999999999973E-002     39739.939492253892     
  -3.1500000000000000E-002     41256.860989726716     
  -3.1000000000000000E-002     42825.553111022120     
  -3.0499999999999999E-002     44447.297122765056     
  -2.9999999999999999E-002     46123.768833391980     
  -2.9499999999999998E-002     47856.336731298288     
  -2.8999999999999998E-002     49646.761049916298     
  -2.8499999999999998E-002     51496.730890760125     
  -2.7999999999999997E-002     53407.622282821831     
  -2.7499999999999997E-002     55381.428809041972     
  -2.6999999999999996E-002     57419.587270100106     
  -2.6499999999999996E-002     59524.090350173326     
  -2.5999999999999995E-002     61696.588925350719     
  -2.5499999999999995E-002     63938.753897202376     
  -2.4999999999999994E-002     66252.608504126227     
  -2.4499999999999994E-002     68639.860458429495     
  -2.3999999999999994E-002     71102.868282796117     
  -2.3499999999999993E-002     73643.287971254555     
  -2.2999999999999993E-002     76262.932199573173     
  -2.2499999999999992E-002     78964.092352969077     
  -2.1999999999999992E-002     81748.676140055206     
  -2.1499999999999991E-002     84618.683719169407     
  -2.0999999999999991E-002     87576.318484436430     
  -2.0499999999999990E-002     90623.872216053947     
  -1.9999999999999990E-002     93763.602047646797     
  -1.9499999999999990E-002     96997.206446724158     
  -1.8999999999999989E-002     100327.22102493170     
  -1.8499999999999989E-002     103755.84679430988     
  -1.7999999999999988E-002     107285.59334630409     
  -1.7499999999999988E-002     110918.64580469375     
  -1.6999999999999987E-002     114656.87817808700     
  -1.6499999999999987E-002     118502.87840190221     
  -1.5999999999999986E-002     122459.55875623273     
  -1.5499999999999986E-002     126529.68130452378     
  -1.4999999999999986E-002     130714.98622148245     
  -1.4499999999999985E-002     135017.76404915960     
  -1.3999999999999985E-002     139441.25679186569     
  -1.3499999999999984E-002     143987.89792472363     
  -1.2999999999999984E-002     148659.57549628959     
  -1.2499999999999983E-002     153459.91386317159     
  -1.1999999999999983E-002     158390.11093541485     
  -1.1499999999999982E-002     163453.49077568162     
  -1.0999999999999982E-002     168652.28179592616     
  -1.0499999999999982E-002     173990.27118150768     
  -9.9999999999999811E-003     179468.08710724406     
  -9.4999999999999807E-003     185090.53401120560     
  -8.9999999999999802E-003     190858.88218614261     
  -8.4999999999999798E-003     196776.26488525781     
  -7.9999999999999793E-003     202845.85780968610     
  -7.4999999999999789E-003     209069.32796225138     
  -6.9999999999999785E-003     215450.22669198259     
  -6.4999999999999780E-003     221991.57472577505     
  -5.9999999999999776E-003     228695.10074332030     
  -5.4999999999999771E-003     235563.75285219273     
  -4.9999999999999767E-003     242599.69725993637     
  -4.4999999999999762E-003     249807.64222431381     
  -3.9999999999999758E-003     257187.82764245232     
  -3.4999999999999754E-003     264744.11265708110     
  -2.9999999999999749E-003     272479.59031938331     
  -2.4999999999999745E-003     280395.93724934582     
  -1.9999999999999740E-003     288496.34372825990     
  -1.4999999999999736E-003     296782.47998768312     
  -9.9999999999997313E-004     305258.57692756271     
  -4.9999999999997269E-004     313925.77658127993     
   0.0000000000000000          322787.63106880442     
   5.0000000000000044E-004     331844.29481743509     
   1.0000000000000009E-003     341101.17505019752     
   1.5000000000000013E-003     350557.51383981295     
   2.0000000000000018E-003     360216.74483022827     
   2.5000000000000022E-003     370083.65044897737     
   3.0000000000000027E-003     380157.92853467353     
   3.5000000000000031E-003     390443.77843166562     
   4.0000000000000036E-003     400940.77185578854     
   4.5000000000000040E-003     411651.96894031460     
   5.0000000000000044E-003     422579.29029245232     
   5.5000000000000049E-003     433725.53814131999     
   6.0000000000000053E-003     445090.69595311582     
   6.5000000000000058E-003     456677.14308546972     
   7.0000000000000062E-003     468487.19664508896     
   7.5000000000000067E-003     480521.98336980003     
   8.0000000000000071E-003     492784.41023192508     
   8.5000000000000075E-003     505272.53899885085     
   9.0000000000000080E-003     517989.61835726094     
   9.5000000000000084E-003     530936.19503786112     
   1.0000000000000009E-002     544115.17441245890     
   1.0500000000000009E-002     557524.77875789558     
   1.1000000000000010E-002     571167.60168560175     
   1.1500000000000010E-002     585042.05262345704     
   1.2000000000000011E-002     599150.89115103497     
   1.2500000000000011E-002     613491.91868561716     
   1.3000000000000012E-002     628067.03036127123     
   1.3500000000000012E-002     642878.89020149806     
   1.4000000000000012E-002     657922.99511243403     
   1.4500000000000013E-002     673203.02280512895     
   1.5000000000000013E-002     688717.19959476939     
   1.5500000000000014E-002     704463.70698888996     
   1.6000000000000014E-002     720446.63910788158     
   1.6500000000000015E-002     736657.17688888242     
   1.7000000000000015E-002     753099.50032196939     
   1.7500000000000016E-002     769772.44444404845     
   1.8000000000000016E-002     786674.40885212668     
   1.8500000000000016E-002     803801.05224846490     
   1.9000000000000017E-002     821152.24853383889     
   1.9500000000000017E-002     838728.45776030654     
   2.0000000000000018E-002     856519.53472648049     
   2.0500000000000018E-002     874527.86771777133     
   2.1000000000000019E-002     892752.84809095412     
   2.1500000000000019E-002     911188.08660131320     
   2.2000000000000020E-002     929831.38873582054     
   2.2500000000000020E-002     948679.82034152793     
   2.3000000000000020E-002     967724.71706914669     
   2.3500000000000021E-002     986965.59962691739     
   2.4000000000000021E-002     1006406.6360161537     
   2.4500000000000022E-002     1026033.2422482232     
   2.5000000000000022E-002     1045834.9772338448     
   2.5500000000000023E-002     1065820.6531652296     
   2.6000000000000023E-002     1085981.7475037952     
   2.6500000000000024E-002     1106304.4797721454     
   2.7000000000000024E-002     1126795.7166762464     
   2.7500000000000024E-002     1147436.4070305647     
   2.8000000000000025E-002     1168230.3637121269     
   2.8500000000000025E-002     1189160.5703150420     
   2.9000000000000026E-002     1210222.9736149875     
   2.9500000000000026E-002     1231416.0996105303     
   3.0000000000000027E-002     1252727.6090071406     
   3.0500000000000027E-002     1274154.4886629167     
   3.1000000000000028E-002     1295680.2801035354     
   3.1500000000000028E-002     1317304.4648829889     
   3.2000000000000028E-002     1339009.8407777059     