 -0.23999999999999999          2.3402579245157540E-005
 -0.23949999999999999          1.6373754988308065E-005
 -0.23899999999999999          2.4273506369354436E-006
 -0.23849999999999999         -1.4814141650276724E-005
 -0.23799999999999999         -3.0651222914457321E-005
 -0.23749999999999999         -4.0411126974504441E-005
 -0.23699999999999999         -4.0567978430772200E-005
 -0.23649999999999999         -2.9623790396726690E-005
 -0.23599999999999999         -8.5459469119086862E-006
 -0.23549999999999999          1.9346292901900597E-005
 -0.23499999999999999          4.9031197704607621E-005
 -0.23449999999999999          7.4834788392763585E-005
 -0.23399999999999999          9.1656103904824704E-005
 -0.23349999999999999          9.6097865025512874E-005
 -0.23299999999999998          8.7251573859248310E-005
 -0.23249999999999998          6.6956403315998614E-005
 -0.23199999999999998          3.9465448935516179E-005
 -0.23149999999999998          1.0581329661363270E-005
 -0.23099999999999998         -1.3559027138398960E-005
 -0.23049999999999998         -2.7792611945187673E-005
 -0.22999999999999998         -2.9047741918475367E-005
 -0.22949999999999998         -1.7025893612299114E-005
 -0.22899999999999998          5.7066968111030292E-006
 -0.22849999999999998          3.4246204450028017E-005
 -0.22799999999999998          6.2392944528255612E-005
 -0.22749999999999998          8.3988365076947957E-005
 -0.22699999999999998          9.4265546067617834E-005
 -0.22649999999999998          9.0920046204701066E-005
 -0.22599999999999998          7.4667514127213508E-005
 -0.22549999999999998          4.9159873015014455E-005
 -0.22499999999999998          2.0267618310754187E-005
 -0.22449999999999998         -5.1275169425935019E-006
 -0.22399999999999998         -2.0579640477080829E-005
 -0.22349999999999998         -2.1463773009600118E-005
 -0.22299999999999998         -6.0003808357578237E-006
 -0.22249999999999998          2.4297565687447786E-005
 -0.22199999999999998          6.4859414123930037E-005
 -0.22150000000000000          1.0893492435570806E-004
 -0.22100000000000000          1.4893600018694997E-004
 -0.22050000000000000          1.7797056352719665E-004
 -0.22000000000000000          1.9125110702589154E-004
 -0.21950000000000000          1.8708793504629284E-004
 -0.21900000000000000          1.6725773457437754E-004
 -0.21850000000000000          1.3666863378603011E-004
 -0.21800000000000000          1.0239173570880666E-004
 -0.21750000000000000          7.2256407293025404E-005
 -0.21700000000000000          5.3292689699446782E-005
 -0.21650000000000000          5.0346978241577744E-005
 -0.21600000000000000          6.5143911342602223E-005
 -0.21550000000000000          9.5992225396912545E-005
 -0.21500000000000000          1.3817926810588688E-004
 -0.21450000000000000          1.8497511337045580E-004
 -0.21400000000000000          2.2902745695319027E-004
 -0.21350000000000000          2.6386708486825228E-004
 -0.21299999999999999          2.8520618798211217E-004
 -0.21249999999999999          2.9176875250414014E-004
 -0.21199999999999999          2.8550034039653838E-004
 -0.21149999999999999          2.7111778035759926E-004
 -0.21099999999999999          2.5509684928692877E-004
 -0.21049999999999999          2.4433824000880122E-004
 -0.20999999999999999          2.4476443650200963E-004
 -0.20949999999999999          2.6016347692348063E-004
 -0.20899999999999999          2.9148964677006006E-004
 -0.20849999999999999          3.3676141174510121E-004
 -0.20799999999999999          3.9155950071290135E-004
 -0.20749999999999999          4.5001218677498400E-004
 -0.20699999999999999          5.0604023272171617E-004
 -0.20649999999999999          5.5460049770772457E-004
 -0.20599999999999999          5.9268058976158500E-004
 -0.20549999999999999          6.1981915496289730E-004
 -0.20499999999999999          6.3811975996941328E-004
 -0.20449999999999999          6.5168587025254965E-004
 -0.20399999999999999          6.6572253126651049E-004
 -0.20349999999999999          6.8541232030838728E-004
 -0.20299999999999999          7.1487837703898549E-004
 -0.20249999999999999          7.5641815783455968E-004
 -0.20199999999999999          8.1017479533329606E-004
 -0.20149999999999998          8.7427283870056272E-004
 -0.20099999999999998          9.4541150610893965E-004
 -0.20049999999999998          1.0196978691965342E-003
 -0.19999999999999998          1.0936217149719596E-003
 -0.19949999999999998          1.1648510117083788E-003
 -0.19899999999999998          1.2327270815148950E-003
 -0.19849999999999998          1.2983832275494933E-003
 -0.19799999999999998          1.3644444989040494E-003
 -0.19749999999999998          1.4343602815642953E-003
 -0.19699999999999998          1.5116264112293720E-003
 -0.19649999999999998          1.5990263782441616E-003
 -0.19600000000000001          1.6980376094579697E-003
 -0.19550000000000001          1.8085681367665529E-003
 -0.19500000000000001          1.9291524076834321E-003
 -0.19450000000000001          2.0573588553816080E-003
 -0.19400000000000001          2.1905503235757351E-003
 -0.19350000000000001          2.3265930358320475E-003
 -0.19300000000000000          2.4644676595926285E-003
 -0.19250000000000000          2.6046030689030886E-003
 -0.19200000000000000          2.7489187195897102E-003
 -0.19150000000000000          2.9003608506172895E-003
 -0.19100000000000000          3.0623502098023891E-003
 -0.19050000000000000          3.2380078919231892E-003
 -0.19000000000000000          3.4294063225388527E-003
 -0.18950000000000000          3.6372714675962925E-003
 -0.18900000000000000          3.8607358001172543E-003
 -0.18850000000000000          4.0976842865347862E-003
 -0.18800000000000000          4.3453052639961243E-003
 -0.18750000000000000          4.6009770594537258E-003
 -0.18700000000000000          4.8630018718540668E-003
 -0.18650000000000000          5.1311445422470570E-003
 -0.18600000000000000          5.4072262719273567E-003
 -0.18550000000000000          5.6947697885334492E-003
 -0.18500000000000000          5.9985569678246975E-003
 -0.18450000000000000          6.3238125294446945E-003
 -0.18400000000000000          6.6753583960235119E-003
 -0.18350000000000000          7.0565012283623219E-003
 -0.18300000000000000          7.4687860906124115E-003
 -0.18250000000000000          7.9114893451333046E-003
 -0.18200000000000000          8.3820475265383720E-003
 -0.18149999999999999          8.8768051937222481E-003
 -0.18099999999999999          9.3918694183230400E-003
 -0.18049999999999999          9.9241537973284721E-003
 -0.17999999999999999          1.0472446680068970E-002
 -0.17949999999999999          1.1037803255021572E-002
 -0.17899999999999999          1.1623994447290897E-002
 -0.17849999999999999          1.2236541137099266E-002
 -0.17799999999999999          1.2882416136562824E-002
 -0.17749999999999999          1.3568705879151821E-002
 -0.17699999999999999          1.4301355928182602E-002
 -0.17649999999999999          1.5084701590240002E-002
 -0.17599999999999999          1.5920396894216537E-002
 -0.17549999999999999          1.6807705163955688E-002
 -0.17499999999999999          1.7744103446602821E-002
 -0.17449999999999999          1.8725946545600891E-002
 -0.17399999999999999          1.9749950617551804E-002
 -0.17349999999999999          2.0813809707760811E-002
 -0.17299999999999999          2.1917669102549553E-002
 -0.17249999999999999          2.3064587265253067E-002
 -0.17199999999999999          2.4260086938738823E-002
 -0.17149999999999999          2.5511981919407845E-002
 -0.17099999999999999          2.6829110458493233E-002
 -0.17049999999999998          2.8220074251294136E-002
 -0.16999999999999998          2.9692333191633224E-002
 -0.16949999999999998          3.1251307576894760E-002
 -0.16899999999999998          3.2900106161832809E-002
 -0.16849999999999998          3.4639380872249603E-002
 -0.16799999999999998          3.6467902362346649E-002
 -0.16749999999999998          3.8383908569812775E-002
 -0.16699999999999998          4.0385652333498001E-002
 -0.16649999999999998          4.2473331093788147E-002
 -0.16599999999999998          4.4649355113506317E-002
 -0.16549999999999998          4.6918526291847229E-002
 -0.16499999999999998          4.9288284033536911E-002
 -0.16449999999999998          5.1768235862255096E-002
 -0.16399999999999998          5.4367665201425552E-002
 -0.16349999999999998          5.7097196578979492E-002
 -0.16299999999999998          5.9965524822473526E-002
 -0.16249999999999998          6.2980063259601593E-002
 -0.16199999999999998          6.6145755350589752E-002
 -0.16149999999999998          6.9466285407543182E-002
 -0.16099999999999998          7.2943568229675293E-002
 -0.16049999999999998          7.6579757034778595E-002
 -0.15999999999999998          8.0378398299217224E-002
 -0.15949999999999998          8.4343612194061279E-002
 -0.15899999999999997          8.8482894003391266E-002
 -0.15849999999999997          9.2804111540317535E-002
 -0.15799999999999997          9.7317032516002655E-002
 -0.15749999999999997         0.10203509777784348     
 -0.15699999999999997         0.10696946829557419     
 -0.15649999999999997         0.11213159561157227     
 -0.15599999999999997         0.11753417551517487     
 -0.15549999999999997         0.12318713963031769     
 -0.15499999999999997         0.12909823656082153     
 -0.15449999999999997         0.13527528941631317     
 -0.15399999999999997         0.14172776043415070     
 -0.15349999999999997         0.14846345782279968     
 -0.15299999999999997         0.15549023449420929     
 -0.15249999999999997         0.16281954944133759     
 -0.15200000000000000         0.17046278715133667     
 -0.15150000000000000         0.17843700945377350     
 -0.15100000000000000         0.18675513565540314     
 -0.15049999999999999         0.19543319940567017     
 -0.14999999999999999         0.20448878407478333     
 -0.14949999999999999         0.21393506228923798     
 -0.14899999999999999         0.22378703951835632     
 -0.14849999999999999         0.23406197130680084     
 -0.14799999999999999         0.24477191269397736     
 -0.14749999999999999         0.25593489408493042     
 -0.14699999999999999         0.26756128668785095     
 -0.14649999999999999         0.27966853976249695     
 -0.14599999999999999         0.29227504134178162     
 -0.14549999999999999         0.30540090799331665     
 -0.14499999999999999         0.31906726956367493     
 -0.14449999999999999         0.33329188823699951     
 -0.14399999999999999         0.34810221195220947     
 -0.14349999999999999         0.36351826786994934     
 -0.14299999999999999         0.37957113981246948     
 -0.14249999999999999         0.39627319574356079     
 -0.14199999999999999         0.41365006566047668     
 -0.14149999999999999         0.43173062801361084     
 -0.14099999999999999         0.45052483677864075     
 -0.14049999999999999         0.47006344795227051     
 -0.13999999999999999         0.49037206172943115     
 -0.13949999999999999         0.51146703958511353     
 -0.13899999999999998         0.53338354825973511     
 -0.13849999999999998         0.55615407228469849     
 -0.13799999999999998         0.57980316877365112     
 -0.13749999999999998         0.60437244176864624     
 -0.13699999999999998         0.62989306449890137     
 -0.13649999999999998         0.65639626979827881     
 -0.13599999999999998         0.68391877412796021     
 -0.13550000000000001         0.71249127388000488     
 -0.13500000000000001         0.74214339256286621     
 -0.13450000000000001         0.77290666103363037     
 -0.13400000000000001         0.80481415987014771     
 -0.13350000000000001         0.83788728713989258     
 -0.13300000000000001         0.87218189239501953     
 -0.13250000000000001         0.90773612260818481     
 -0.13200000000000001         0.94458287954330444     
 -0.13150000000000001         0.98276311159133911     
 -0.13100000000000001          1.0223311185836792     
 -0.13050000000000000          1.0633295774459839     
 -0.13000000000000000          1.1058151721954346     
 -0.12950000000000000          1.1498214006423950     
 -0.12900000000000000          1.1953928470611572     
 -0.12850000000000000          1.2425986528396606     
 -0.12800000000000000          1.2914518117904663     
 -0.12750000000000000          1.3420220613479614     
 -0.12700000000000000          1.3943295478820801     
 -0.12650000000000000          1.4484382867813110     
 -0.12600000000000000          1.5043883323669434     
 -0.12550000000000000          1.5622212886810303     
 -0.12499999999999999          1.6220418214797974     
 -0.12449999999999999          1.6838812828063965     
 -0.12399999999999999          1.7477867603302002     
 -0.12349999999999998          1.8138443231582642     
 -0.12299999999999998          1.8821252584457397     
 -0.12249999999999998          1.9526337385177612     
 -0.12199999999999998          2.0255031585693359     
 -0.12149999999999998          2.1007516384124756     
 -0.12099999999999998          2.1784081459045410     
 -0.12049999999999998          2.2585542201995850     
 -0.12000000000000000          2.3412482738494873     
 -0.11950000000000000          2.4265477657318115     
 -0.11899999999999999          2.5145597457885742     
 -0.11849999999999999          2.6053521633148193     
 -0.11799999999999999          2.6989567279815674     
 -0.11749999999999999          2.7954630851745605     
 -0.11699999999999999          2.8949837684631348     
 -0.11649999999999999          2.9975397586822510     
 -0.11599999999999999          3.1031765937805176     
 -0.11549999999999999          3.2120425701141357     
 -0.11499999999999999          3.3241355419158936     
 -0.11449999999999999          3.4395575523376465     
 -0.11399999999999999          3.5583946704864502     
 -0.11349999999999999          3.6807155609130859     
 -0.11299999999999999          3.8065805435180664     
 -0.11249999999999999          3.9361386299133301     
 -0.11199999999999999          4.0693755149841309     
 -0.11149999999999999          4.2064414024353027     
 -0.11099999999999999          4.3474292755126953     
 -0.11049999999999999          4.4922575950622559     
 -0.10999999999999999          4.6411852836608887     
 -0.10949999999999999          4.7941694259643555     
 -0.10899999999999999          4.9513764381408691     
 -0.10849999999999999          5.1127552986145020     
 -0.10799999999999998          5.2784953117370605     
 -0.10749999999999998          5.4487652778625488     
 -0.10699999999999998          5.6234855651855469     
 -0.10649999999999998          5.8027954101562500     
 -0.10599999999999998          5.9868054389953613     
 -0.10549999999999998          6.1755394935607910     
 -0.10499999999999998          6.3690471649169922     
 -0.10449999999999998          6.5675330162048340     
 -0.10399999999999998          6.7708592414855957     
 -0.10349999999999998          6.9793210029602051     
 -0.10299999999999998          7.1929030418395996     
 -0.10249999999999998          7.4117970466613770     
 -0.10199999999999998          7.6359009742736816     
 -0.10149999999999998          7.8654232025146484     
 -0.10099999999999998          8.1004095077514648     
 -0.10049999999999998          8.3406314849853516     
  -9.9999999999999978E-002     8.5864486694335938     
  -9.9499999999999977E-002     8.8380146026611328     
  -9.8999999999999977E-002     9.0952053070068359     
  -9.8499999999999976E-002     9.3579912185668945     
  -9.7999999999999976E-002     9.6267585754394531     
  -9.7499999999999976E-002     9.9015464782714844     
  -9.6999999999999975E-002     10.182050704956055     
  -9.6499999999999975E-002     10.468767166137695     
  -9.5999999999999974E-002     10.761634826660156     
  -9.5500000000000002E-002     11.060206413269043     
  -9.5000000000000001E-002     11.365110397338867     
  -9.4500000000000001E-002     11.675986289978027     
  -9.4000000000000000E-002     11.993346214294434     
  -9.3500000000000000E-002     12.316658973693848     
  -9.2999999999999999E-002     12.646290779113770     
  -9.2499999999999999E-002     12.982234954833984     
  -9.1999999999999998E-002     13.324306488037109     
  -9.1499999999999998E-002     13.673166275024414     
  -9.0999999999999998E-002     14.028110504150391     
  -9.0499999999999997E-002     14.389822006225586     
  -8.9999999999999997E-002     14.757766723632812     
  -8.9499999999999996E-002     15.132150650024414     
  -8.8999999999999996E-002     15.512845993041992     
  -8.8499999999999995E-002     15.899634361267090     
  -8.7999999999999995E-002     16.292774200439453     
  -8.7499999999999994E-002     16.691993713378906     
  -8.6999999999999994E-002     17.097854614257812     
  -8.6499999999999994E-002     17.509853363037109     
  -8.5999999999999993E-002     17.928373336791992     
  -8.5499999999999993E-002     18.352821350097656     
  -8.4999999999999992E-002     18.783493041992188     
  -8.4499999999999992E-002     19.219949722290039     
  -8.3999999999999991E-002     19.662645339965820     
  -8.3499999999999991E-002     20.111396789550781     
  -8.2999999999999990E-002     20.565397262573242     
  -8.2499999999999990E-002     21.025596618652344     
  -8.1999999999999990E-002     21.491340637207031     
  -8.1499999999999989E-002     21.962421417236328     
  -8.0999999999999989E-002     22.439300537109375     
  -8.0499999999999988E-002     22.920669555664062     
  -7.9999999999999988E-002     23.407485961914062     
  -7.9499999999999987E-002     23.899541854858398     
  -7.8999999999999987E-002     24.396749496459961     
  -7.8499999999999986E-002     24.897893905639648     
  -7.7999999999999986E-002     25.403589248657227     
  -7.7499999999999986E-002     25.913364410400391     
  -7.6999999999999985E-002     26.427988052368164     
  -7.6499999999999985E-002     26.946332931518555     
  -7.5999999999999984E-002     27.468061447143555     
  -7.5499999999999984E-002     27.993108749389648     
  -7.4999999999999983E-002     28.521867752075195     
  -7.4499999999999983E-002     29.052509307861328     
  -7.3999999999999982E-002     29.586557388305664     
  -7.3499999999999982E-002     30.121948242187500     
  -7.2999999999999982E-002     30.659788131713867     
  -7.2499999999999981E-002     31.199293136596680     
  -7.1999999999999981E-002     31.741147994995117     
  -7.1499999999999980E-002     32.283740997314453     
  -7.0999999999999980E-002     32.827548980712891     
  -7.0499999999999979E-002     33.371402740478516     
  -6.9999999999999979E-002     33.916141510009766     
  -6.9499999999999978E-002     34.460235595703125     
  -6.8999999999999978E-002     35.002956390380859     
  -6.8499999999999978E-002     35.544189453125000     
  -6.7999999999999977E-002     36.084827423095703     
  -6.7499999999999977E-002     36.624237060546875     
  -6.6999999999999976E-002     37.160041809082031     
  -6.6499999999999976E-002     37.692714691162109     
  -6.5999999999999975E-002     38.223003387451172     
  -6.5499999999999975E-002     38.748493194580078     
  -6.4999999999999974E-002     39.269466400146484     
  -6.4499999999999974E-002     39.786235809326172     
  -6.4000000000000001E-002     40.297035217285156     
  -6.3500000000000001E-002     40.801658630371094     
  -6.3000000000000000E-002     41.301532745361328     
  -6.2500000000000000E-002     41.793449401855469     
  -6.2000000000000000E-002     42.277996063232422     
  -6.1499999999999999E-002     42.753658294677734     
  -6.0999999999999999E-002     43.220508575439453     
  -6.0499999999999998E-002     43.679195404052734     
  -5.9999999999999998E-002     44.127067565917969     
  -5.9499999999999997E-002     44.564601898193359     
  -5.8999999999999997E-002     44.989818572998047     
  -5.8499999999999996E-002     45.401371002197266     
  -5.7999999999999996E-002     45.799545288085938     
  -5.7499999999999996E-002     46.184890747070312     
  -5.6999999999999995E-002     46.559291839599609     
  -5.6499999999999995E-002     46.916122436523438     
  -5.5999999999999994E-002     47.260219573974609     
  -5.5499999999999994E-002     47.588088989257812     
  -5.4999999999999993E-002     47.896282196044922     
  -5.4499999999999993E-002     48.190490722656250     
  -5.3999999999999992E-002     48.461147308349609     
  -5.3499999999999992E-002     48.715259552001953     
  -5.2999999999999992E-002     48.949115753173828     
  -5.2499999999999991E-002     49.159610748291016     
  -5.1999999999999991E-002     49.344730377197266     
  -5.1499999999999990E-002     49.511802673339844     
  -5.0999999999999990E-002     49.654811859130859     
  -5.0499999999999989E-002     49.773468017578125     
  -4.9999999999999989E-002     49.866714477539062     
  -4.9499999999999988E-002     49.931419372558594     
  -4.8999999999999988E-002     49.973594665527344     
  -4.8499999999999988E-002     49.988090515136719     
  -4.7999999999999987E-002     49.973403930664062     
  -4.7499999999999987E-002     49.929145812988281     
  -4.6999999999999986E-002     49.857242584228516     
  -4.6499999999999986E-002     49.753402709960938     
  -4.5999999999999985E-002     49.618747711181641     
  -4.5499999999999985E-002     49.448699951171875     
  -4.4999999999999984E-002     49.246009826660156     
  -4.4499999999999984E-002     49.007545471191406     
  -4.3999999999999984E-002     48.732475280761719     
  -4.3499999999999983E-002     48.422843933105469     
  -4.2999999999999983E-002     48.072250366210938     
  -4.2499999999999982E-002     47.687225341796875     
  -4.1999999999999982E-002     47.262329101562500     
  -4.1499999999999981E-002     46.797882080078125     
  -4.0999999999999981E-002     46.297340393066406     
  -4.0499999999999980E-002     45.756027221679688     
  -3.9999999999999980E-002     45.173690795898438     
  -3.9499999999999980E-002     44.546298980712891     
  -3.8999999999999979E-002     43.879100799560547     
  -3.8499999999999979E-002     43.164218902587891     
  -3.7999999999999978E-002     42.407035827636719     
  -3.7499999999999978E-002     41.604476928710938     
  -3.6999999999999977E-002     40.754299163818359     
  -3.6499999999999977E-002     39.857658386230469     
  -3.5999999999999976E-002     38.909114837646484     
  -3.5499999999999976E-002     37.915325164794922     
  -3.4999999999999976E-002     36.877052307128906     
  -3.4499999999999975E-002     35.785594940185547     
  -3.3999999999999975E-002     34.648571014404297     
  -3.3499999999999974E-002     33.451515197753906     
  -3.2999999999999974E-002     32.207996368408203     
  -3.2499999999999973E-002     30.915260314941406     
  -3.1999999999999973E-002     29.570749282836914     
  -3.1500000000000000E-002     28.174268722534180     
  -3.1000000000000000E-002     26.723772048950195     
  -3.0499999999999999E-002     25.223676681518555     
  -2.9999999999999999E-002     23.679292678833008     
  -2.9499999999999998E-002     22.078781127929688     
  -2.8999999999999998E-002     20.424894332885742     
  -2.8499999999999998E-002     18.711614608764648     
  -2.7999999999999997E-002     16.946813583374023     
  -2.7499999999999997E-002     15.123710632324219     
  -2.6999999999999996E-002     13.243646621704102     
  -2.6499999999999996E-002     11.308798789978027     
  -2.5999999999999995E-002     9.3127670288085938     
  -2.5499999999999995E-002     7.2730870246887207     
  -2.4999999999999994E-002     5.1776633262634277     
  -2.4499999999999994E-002     3.0319995880126953     
  -2.3999999999999994E-002    0.83494389057159424     
  -2.3499999999999993E-002    -1.4124798774719238     
  -2.2999999999999993E-002    -3.7038075923919678     
  -2.2499999999999992E-002    -6.0506873130798340     
  -2.1999999999999992E-002    -8.4481267929077148     
  -2.1499999999999991E-002    -10.903551101684570     
  -2.0999999999999991E-002    -13.421694755554199     
  -2.0499999999999990E-002    -15.998461723327637     
  -1.9999999999999990E-002    -18.624382019042969     
  -1.9499999999999990E-002    -21.300733566284180     
  -1.8999999999999989E-002    -24.013309478759766     
  -1.8499999999999989E-002    -26.782972335815430     
  -1.7999999999999988E-002    -29.593852996826172     
  -1.7499999999999988E-002    -32.440444946289062     
  -1.6999999999999987E-002    -35.332859039306641     
  -1.6499999999999987E-002    -38.255741119384766     
  -1.5999999999999986E-002    -41.224956512451172     
  -1.5499999999999986E-002    -44.241786956787109     
  -1.4999999999999986E-002    -47.299705505371094     
  -1.4499999999999985E-002    -50.398075103759766     
  -1.3999999999999985E-002    -53.533432006835938     
  -1.3499999999999984E-002    -56.727546691894531     
  -1.2999999999999984E-002    -59.958778381347656     
  -1.2499999999999983E-002    -63.217655181884766     
  -1.1999999999999983E-002    -66.505851745605469     
  -1.1499999999999982E-002    -69.827835083007812     
  -1.0999999999999982E-002    -73.172218322753906     
  -1.0499999999999982E-002    -76.547187805175781     
  -9.9999999999999811E-003    -79.938804626464844     
  -9.4999999999999807E-003    -83.350265502929688     
  -8.9999999999999802E-003    -86.772727966308594     
  -8.4999999999999798E-003    -90.216949462890625     
  -7.9999999999999793E-003    -93.677688598632812     
  -7.4999999999999789E-003    -97.167221069335938     
  -6.9999999999999785E-003    -100.67697906494141     
  -6.4999999999999780E-003    -104.19147491455078     
  -5.9999999999999776E-003    -107.71556854248047     
  -5.4999999999999771E-003    -111.25080108642578     
  -4.9999999999999767E-003    -114.80011749267578     
  -4.4999999999999762E-003    -118.34059143066406     
  -3.9999999999999758E-003    -121.88312530517578     
  -3.4999999999999754E-003    -125.42308807373047     
  -2.9999999999999749E-003    -128.94424438476562     
  -2.4999999999999745E-003    -132.45080566406250     
  -1.9999999999999740E-003    -135.94033813476562     
  -1.4999999999999736E-003    -139.41770935058594     
  -9.9999999999997313E-004    -142.88356018066406     
  -4.9999999999997269E-004    -146.32542419433594     
   0.0000000000000000         -149.76484680175781     
   5.0000000000000044E-004    -153.20292663574219     
   1.0000000000000009E-003    -156.60472106933594     
   1.5000000000000013E-003    -159.96823120117188     
   2.0000000000000018E-003    -163.30749511718750     
   2.5000000000000022E-003    -166.60017395019531     
   3.0000000000000027E-003    -169.84310913085938     
   3.5000000000000031E-003    -173.04023742675781     
   4.0000000000000036E-003    -176.18289184570312     
   4.5000000000000040E-003    -179.28022766113281     
   5.0000000000000044E-003    -182.32939147949219     
   5.5000000000000049E-003    -185.32382202148438     
   6.0000000000000053E-003    -188.27684020996094     
   6.5000000000000058E-003    -191.16925048828125     
   7.0000000000000062E-003    -193.99389648437500     
   7.5000000000000067E-003    -196.76342773437500     
   8.0000000000000071E-003    -199.45495605468750     
   8.5000000000000075E-003    -202.08183288574219     
   9.0000000000000080E-003    -204.62147521972656     
   9.5000000000000084E-003    -207.08029174804688     
   1.0000000000000009E-002    -209.46173095703125     
   1.0500000000000009E-002    -211.73751831054688     
   1.1000000000000010E-002    -213.95262145996094     
   1.1500000000000010E-002    -216.06077575683594     
   1.2000000000000011E-002    -218.09457397460938     
   1.2500000000000011E-002    -220.02384948730469     
   1.3000000000000012E-002    -221.86996459960938     
   1.3500000000000012E-002    -223.61111450195312     
   1.4000000000000012E-002    -225.24224853515625     
   1.4500000000000013E-002    -226.76829528808594     
   1.5000000000000013E-002    -228.17616271972656     
   1.5500000000000014E-002    -229.46849060058594     
   1.6000000000000014E-002    -230.63504028320312     
   1.6500000000000015E-002    -231.68307495117188     
   1.7000000000000015E-002    -232.62471008300781     
   1.7500000000000016E-002    -233.43919372558594     
   1.8000000000000016E-002    -234.14479064941406     
   1.8500000000000016E-002    -234.72346496582031     
   1.9000000000000017E-002    -235.17277526855469     
   1.9500000000000017E-002    -235.49620056152344     
   2.0000000000000018E-002    -235.69136047363281     
   2.0500000000000018E-002    -235.75453186035156     
   2.1000000000000019E-002    -235.67601013183594     
   2.1500000000000019E-002    -235.44194030761719     
   2.2000000000000020E-002    -235.06707763671875     
   2.2500000000000020E-002    -234.53799438476562     
   2.3000000000000020E-002    -233.85728454589844     
   2.3500000000000021E-002    -233.04331970214844     
   2.4000000000000021E-002    -232.08403015136719     
   2.4500000000000022E-002    -230.98144531250000     
   2.5000000000000022E-002    -229.73706054687500     
   2.5500000000000023E-002    -228.34931945800781     
   2.6000000000000023E-002    -226.82861328125000     
   2.6500000000000024E-002    -225.15328979492188     
   2.7000000000000024E-002    -223.33540344238281     
   2.7500000000000024E-002    -221.35713195800781     
   2.8000000000000025E-002    -219.22039794921875     
   2.8500000000000025E-002    -216.92247009277344     
   2.9000000000000026E-002    -214.46691894531250     
   2.9500000000000026E-002    -211.84823608398438     
   3.0000000000000027E-002    -209.06678771972656     
   3.0500000000000027E-002    -206.13398742675781     
   3.1000000000000028E-002    -203.04644775390625     
   3.1500000000000028E-002    -199.81239318847656     
   3.2000000000000028E-002    -196.44075012207031     