 -0.23999999999999999          0.0000000000000000     
 -0.23949999999999999          0.0000000000000000     
 -0.23899999999999999          0.0000000000000000     
 -0.23849999999999999          0.0000000000000000     
 -0.23799999999999999         -6.9210285527840462E-016
 -0.23749999999999999         -5.6009321640433528E-015
 -0.23699999999999999         -2.4526344981295381E-014
 -0.23649999999999999         -7.6513090069396365E-014
 -0.23599999999999999         -1.8901554706920780E-013
 -0.23549999999999999         -3.8951065448470226E-013
 -0.23499999999999999         -6.8740388211747184E-013
 -0.23449999999999999         -1.0478562156357853E-012
 -0.23399999999999999         -1.3643513834926192E-012
 -0.23349999999999999         -1.4417165043890244E-012
 -0.23299999999999998         -1.0037458431903015E-012
 -0.23249999999999998          2.6243255947490073E-013
 -0.23199999999999998          2.6204447466171960E-012
 -0.23149999999999998          6.1644724989252546E-012
 -0.23099999999999998          1.0686290243619355E-011
 -0.23049999999999998          1.5563803599602650E-011
 -0.22999999999999998          1.9712204473316761E-011
 -0.22949999999999998          2.1636332766738956E-011
 -0.22899999999999998          1.9609181490437204E-011
 -0.22849999999999998          1.1977859898399679E-011
 -0.22799999999999998         -2.4316753939841878E-012
 -0.22749999999999998         -2.3869896860523263E-011
 -0.22699999999999998         -5.1261453682314525E-011
 -0.22649999999999998         -8.1938628478843160E-011
 -0.22599999999999998         -1.1159783991458523E-010
 -0.22549999999999998         -1.3454338494354163E-010
 -0.22499999999999998         -1.4424415072295254E-010
 -0.22449999999999998         -1.3418225863248400E-010
 -0.22399999999999998         -9.8922467165694941E-011
 -0.22349999999999998         -3.5285969977940129E-011
 -0.22299999999999998          5.6521839721142066E-011
 -0.22249999999999998          1.7200055814780689E-010
 -0.22199999999999998          3.0183473501207258E-010
 -0.22150000000000000          4.3192420675121199E-010
 -0.22100000000000000          5.4408992839667316E-010
 -0.22050000000000000          6.1752713172254518E-010
 -0.22000000000000000          6.3099908128968131E-010
 -0.21950000000000000          5.6566833436032541E-010
 -0.21900000000000000          4.0834550119712138E-010
 -0.21850000000000000          1.5480467859656751E-010
 -0.21800000000000000         -1.8729030670030304E-010
 -0.21750000000000000         -5.9639972201124636E-010
 -0.21700000000000000         -1.0366163307537535E-009
 -0.21650000000000000         -1.4591560162198407E-009
 -0.21600000000000000         -1.8061286395917653E-009
 -0.21550000000000000         -2.0165775533391355E-009
 -0.21500000000000000         -2.0344082076520738E-009
 -0.21450000000000000         -1.8173742133831048E-009
 -0.21400000000000000         -1.3459160673875481E-009
 -0.21350000000000000         -6.3039072487133883E-010
 -0.21299999999999999          2.8484548587642810E-010
 -0.21249999999999999          1.3217928833582770E-009
 -0.21199999999999999          2.3743998421879851E-009
 -0.21149999999999999          3.3194130987115793E-009
 -0.21099999999999999          4.0315900427411875E-009
 -0.21049999999999999          4.4014470773129135E-009
 -0.20999999999999999          4.3529608812258871E-009
 -0.20949999999999999          3.8582310273362295E-009
 -0.20899999999999999          2.9462077380533791E-009
 -0.20849999999999999          1.7032183745769320E-009
 -0.20799999999999999          2.6417782706675599E-010
 -0.20749999999999999         -1.2050832087561195E-009
 -0.20699999999999999         -2.5323094712913446E-009
 -0.20649999999999999         -3.5665584894491356E-009
 -0.20599999999999999         -4.2045950249710013E-009
 -0.20549999999999999         -4.4110668016636757E-009
 -0.20499999999999999         -4.2281653236209378E-009
 -0.20449999999999999         -3.7719084839444222E-009
 -0.20399999999999999         -3.2143136211446842E-009
 -0.20349999999999999         -2.7532267803070674E-009
 -0.20299999999999999         -2.5739672511190090E-009
 -0.20249999999999999         -2.8089224996331973E-009
 -0.20199999999999999         -3.5021120345198813E-009
 -0.20149999999999998         -4.5856367132033019E-009
 -0.20099999999999998         -5.8734081511686004E-009
 -0.20049999999999998         -7.0750752266437651E-009
 -0.19999999999999998         -7.8297723738838549E-009
 -0.19949999999999998         -7.7559272234891799E-009
 -0.19899999999999998         -6.5103567496472245E-009
 -0.19849999999999998         -3.8478584086663120E-009
 -0.19799999999999998          3.2810895149261732E-010
 -0.19749999999999998          5.9320621861601481E-009
 -0.19699999999999998          1.2686543435197478E-008
 -0.19649999999999998          2.0137878251268061E-008
 -0.19600000000000001          2.7696074493218116E-008
 -0.19550000000000001          3.4693219364839674E-008
 -0.19500000000000001          4.0451704614792880E-008
 -0.19450000000000001          4.4351972413726947E-008
 -0.19400000000000001          4.5889674184446485E-008
 -0.19350000000000001          4.4713862064445564E-008
 -0.19300000000000000          4.0641654213540993E-008
 -0.19250000000000000          3.3648673042088740E-008
 -0.19200000000000000          2.3839551120869027E-008
 -0.19150000000000000          1.1406478275086771E-008
 -0.19100000000000000         -3.4135781281266157E-009
 -0.19050000000000000         -2.0371657599622960E-008
 -0.19000000000000000         -3.9219693926220762E-008
 -0.18950000000000000         -5.9696633398046458E-008
 -0.18900000000000000         -8.1486157730004711E-008
 -0.18850000000000000         -1.0414957500206325E-007
 -0.18800000000000000         -1.2704278213690401E-007
 -0.18750000000000000         -1.4923126217219470E-007
 -0.18700000000000000         -1.6941888464312185E-007
 -0.18650000000000000         -1.8590777359252064E-007
 -0.18600000000000000         -1.9660354058317126E-007
 -0.18550000000000000         -1.9907604002473277E-007
 -0.18500000000000000         -1.9068115331846222E-007
 -0.18450000000000000         -1.6873846903041025E-007
 -0.18400000000000000         -1.3075663366586573E-007
 -0.18350000000000000         -7.4687235871637737E-008
 -0.18300000000000000          8.1323275850968274E-010
 -0.18250000000000000          9.6140157631268602E-008
 -0.18200000000000000          2.1054004654759096E-007
 -0.18149999999999999          3.4197659835745393E-007
 -0.18099999999999999          4.8707967659828471E-007
 -0.18049999999999999          6.4118826347719230E-007
 -0.17999999999999999          7.9849117767392962E-007
 -0.17949999999999999          9.5225576645459668E-007
 -0.17899999999999999          1.0951357509606482E-006
 -0.17849999999999999          1.2195293273851714E-006
 -0.17799999999999999          1.3179717219317567E-006
 -0.17749999999999999          1.3835248982537277E-006
 -0.17699999999999999          1.4101461956817491E-006
 -0.17649999999999999          1.3930045612709167E-006
 -0.17599999999999999          1.3287338268736765E-006
 -0.17549999999999999          1.2156081919464064E-006
 -0.17499999999999999          1.0536330290804798E-006
 -0.17449999999999999          8.4456220445301867E-007
 -0.17399999999999999          5.9184515140151689E-007
 -0.17349999999999999          3.0051596181918823E-007
 -0.17299999999999999         -2.2945792911506672E-008
 -0.17249999999999999         -3.7079400202961551E-007
 -0.17199999999999999         -7.3419829289058044E-007
 -0.17149999999999999         -1.1034269094859847E-006
 -0.17099999999999999         -1.4680442931199922E-006
 -0.17049999999999998         -1.8170967441832530E-006
 -0.16999999999999998         -2.1393253803278900E-006
 -0.16949999999999998         -2.4233840520360774E-006
 -0.16899999999999998         -2.6581095300991669E-006
 -0.16849999999999998         -2.8327962447513628E-006
 -0.16799999999999998         -2.9375370428772006E-006
 -0.16749999999999998         -2.9635631860609956E-006
 -0.16699999999999998         -2.9036702061993445E-006
 -0.16649999999999998         -2.7525560957877383E-006
 -0.16599999999999998         -2.5071824792099752E-006
 -0.16549999999999998         -2.1670333370272108E-006
 -0.16499999999999998         -1.7343382467102919E-006
 -0.16449999999999998         -1.2141241434580826E-006
 -0.16399999999999998         -6.1412974693335650E-007
 -0.16349999999999998          5.5456803961444908E-008
 -0.16299999999999998          7.8231409539572289E-007
 -0.16249999999999998          1.5525888147714035E-006
 -0.16199999999999998          2.3514800542464986E-006
 -0.16149999999999998          3.1639537544187005E-006
 -0.16099999999999998          3.9754385501396117E-006
 -0.16049999999999998          4.7723757295933099E-006
 -0.15999999999999998          5.5429336532361434E-006
 -0.15949999999999998          6.2772570172770775E-006
 -0.15899999999999997          6.9679408186850289E-006
 -0.15849999999999997          7.6099302738582525E-006
 -0.15799999999999997          8.2006453363778716E-006
 -0.15749999999999997          8.7396497336181130E-006
 -0.15699999999999997          9.2284128801122172E-006
 -0.15649999999999997          9.6702586844332565E-006
 -0.15599999999999997          1.0069660132090346E-005
 -0.15549999999999997          1.0432357597820947E-005
 -0.15499999999999997          1.0764969006847610E-005
 -0.15449999999999997          1.1075108385958662E-005
 -0.15399999999999997          1.1371471137556248E-005
 -0.15349999999999997          1.1663704852100904E-005
 -0.15299999999999997          1.1962549515433013E-005
 -0.15249999999999997          1.2280526038415949E-005
 -0.15200000000000000          1.2631003257721846E-005
 -0.15150000000000000          1.3028789096349555E-005
 -0.15100000000000000          1.3489308641351252E-005
 -0.15049999999999999          1.4028608345837872E-005
 -0.14999999999999999          1.4662498144795405E-005
 -0.14949999999999999          1.5405761561176479E-005
 -0.14899999999999999          1.6270988574987802E-005
 -0.14849999999999999          1.7268461601805795E-005
 -0.14799999999999999          1.8405344940318592E-005
 -0.14749999999999999          1.9684385631881042E-005
 -0.14699999999999999          2.1104553442907571E-005
 -0.14649999999999999          2.2661179416048399E-005
 -0.14599999999999999          2.4345406477844278E-005
 -0.14549999999999999          2.6146294756786162E-005
 -0.14499999999999999          2.8051042619501156E-005
 -0.14449999999999999          3.0046060141910498E-005
 -0.14399999999999999          3.2119369321821398E-005
 -0.14349999999999999          3.4260661739460084E-005
 -0.14299999999999999          3.6463460343264572E-005
 -0.14249999999999999          3.8726291443134676E-005
 -0.14199999999999999          4.1052429433953234E-005
 -0.14149999999999999          4.3451341425934387E-005
 -0.14099999999999999          4.5937695203845321E-005
 -0.14049999999999999          4.8530880264518610E-005
 -0.13999999999999999          5.1255425544237445E-005
 -0.13949999999999999          5.4140321440830516E-005
 -0.13899999999999998          5.7216387760004230E-005
 -0.13849999999999998          6.0514359186860536E-005
 -0.13799999999999998          6.4066709930621227E-005
 -0.13749999999999998          6.7904112513089332E-005
 -0.13699999999999998          7.2057020570074091E-005
 -0.13649999999999998          7.6551561288111346E-005
 -0.13599999999999998          8.1412685676177850E-005
 -0.13550000000000001          8.6662958247752243E-005
 -0.13500000000000001          9.2321717507789632E-005
 -0.13450000000000001          9.8406605037779676E-005
 -0.13400000000000001          1.0493038445068004E-004
 -0.13350000000000001          1.1190891756327346E-004
 -0.13300000000000001          1.1935605430723391E-004
 -0.13250000000000001          1.2728485738883137E-004
 -0.13200000000000001          1.3571051974879157E-004
 -0.13150000000000001          1.4464751847566848E-004
 -0.13100000000000001          1.5410942414029473E-004
 -0.13050000000000000          1.6411725657295068E-004
 -0.13000000000000000          1.7469292385876743E-004
 -0.12950000000000000          1.8585796991562269E-004
 -0.12900000000000000          1.9764304536725493E-004
 -0.12850000000000000          2.1008161046919509E-004
 -0.12800000000000000          2.2320747543574102E-004
 -0.12750000000000000          2.3706303051296962E-004
 -0.12700000000000000          2.5169739443039834E-004
 -0.12650000000000000          2.6716767896557106E-004
 -0.12600000000000000          2.8352828548591530E-004
 -0.12550000000000000          3.0083992360782576E-004
 -0.12499999999999999          3.1917018918170927E-004
 -0.12449999999999999          3.3859186110436919E-004
 -0.12399999999999999          3.5916728058148326E-004
 -0.12349999999999998          3.8098017606706116E-004
 -0.12299999999999998          4.0409756392615281E-004
 -0.12249999999999998          4.2859387570928932E-004
 -0.12199999999999998          4.5454644711378426E-004
 -0.12149999999999998          4.8203243518112196E-004
 -0.12099999999999998          5.1112168786728398E-004
 -0.12049999999999998          5.4190582794095199E-004
 -0.12000000000000000          5.7446418819428980E-004
 -0.11950000000000000          6.0889439736462169E-004
 -0.11899999999999999          6.4529189781714234E-004
 -0.11849999999999999          6.8377323802566985E-004
 -0.11799999999999999          7.2445254153377409E-004
 -0.11749999999999999          7.6745314571837928E-004
 -0.11699999999999999          8.1292484277481231E-004
 -0.11649999999999999          8.6098315678903841E-004
 -0.11599999999999999          9.1181913990133132E-004
 -0.11549999999999999          9.6558177241586420E-004
 -0.11499999999999999          1.0224218304150554E-003
 -0.11449999999999999          1.0825198393874078E-003
 -0.11399999999999999          1.1460414946177938E-003
 -0.11349999999999999          1.2131579026796000E-003
 -0.11299999999999999          1.2840472303291461E-003
 -0.11249999999999999          1.3588743548634868E-003
 -0.11199999999999999          1.4378506586249533E-003
 -0.11149999999999999          1.5211397378373113E-003
 -0.11099999999999999          1.6089659764791419E-003
 -0.11049999999999999          1.7015282164330975E-003
 -0.10999999999999999          1.7990943624966794E-003
 -0.10949999999999999          1.9019092058839748E-003
 -0.10899999999999999          2.0102447939724386E-003
 -0.10849999999999999          2.1244173066407041E-003
 -0.10799999999999998          2.2447069232307050E-003
 -0.10749999999999998          2.3714820900671615E-003
 -0.10699999999999998          2.5051199062305260E-003
 -0.10649999999999998          2.6460325550499170E-003
 -0.10599999999999998          2.7945920135014428E-003
 -0.10549999999999998          2.9512124661266884E-003
 -0.10499999999999998          3.1163881808063446E-003
 -0.10449999999999998          3.2905233372421848E-003
 -0.10399999999999998          3.4740708637520821E-003
 -0.10349999999999998          3.6675207165889345E-003
 -0.10299999999999998          3.8713717474802636E-003
 -0.10249999999999998          4.0861602785662353E-003
 -0.10199999999999998          4.3123227177917127E-003
 -0.10149999999999998          4.5503765855158989E-003
 -0.10099999999999998          4.8009348352961879E-003
 -0.10049999999999998          5.0645712114996948E-003
  -9.9999999999999978E-002     5.3419010837032063E-003
  -9.9499999999999977E-002     5.6335530285167206E-003
  -9.8999999999999977E-002     5.9403120934663134E-003
  -9.8499999999999976E-002     6.2626676903017736E-003
  -9.7999999999999976E-002     6.6016199463080766E-003
  -9.7499999999999976E-002     6.9577629721595154E-003
  -9.6999999999999975E-002     7.3322084221948830E-003
  -9.6499999999999975E-002     7.7255852224837537E-003
  -9.5999999999999974E-002     8.1390806260501058E-003
  -9.5500000000000002E-002     8.5734566785363245E-003
  -9.5000000000000001E-002     9.0299722462675643E-003
  -9.4500000000000001E-002     9.5096097463684675E-003
  -9.4000000000000000E-002     1.0013556456082193E-002
  -9.3500000000000000E-002     1.0542778133529395E-002
  -9.2999999999999999E-002     1.1098705389974640E-002
  -9.2499999999999999E-002     1.1682466698103387E-002
  -9.1999999999999998E-002     1.2295466727896696E-002
  -9.1499999999999998E-002     1.2939175910489646E-002
  -9.0999999999999998E-002     1.3614783019728825E-002
  -9.0499999999999997E-002     1.4323986112666671E-002
  -8.9999999999999997E-002     1.5068066046172276E-002
  -8.9499999999999996E-002     1.5848747010119645E-002
  -8.8999999999999996E-002     1.6667399366948617E-002
  -8.8499999999999995E-002     1.7525933082940520E-002
  -8.7999999999999995E-002     1.8426464319932289E-002
  -8.7499999999999994E-002     1.9370240407519071E-002
  -8.6999999999999994E-002     2.0359367388301963E-002
  -8.6499999999999994E-002     2.1396658589854796E-002
  -8.5999999999999993E-002     2.2482987405772689E-002
  -8.5499999999999993E-002     2.3621409313824372E-002
  -8.4999999999999992E-002     2.4814297865914034E-002
  -8.4499999999999992E-002     2.6063746406710851E-002
  -8.3999999999999991E-002     2.7372625556253465E-002
  -8.3499999999999991E-002     2.8743338335645421E-002
  -8.2999999999999990E-002     3.0178551633374663E-002
  -8.2499999999999990E-002     3.1680775561621972E-002
  -8.1999999999999990E-002     3.3253817104407370E-002
  -8.1499999999999989E-002     3.4900082792799818E-002
  -8.0999999999999989E-002     3.6623097932409761E-002
  -8.0499999999999988E-002     3.8426202089284128E-002
  -7.9999999999999988E-002     4.0312045998194643E-002
  -7.9499999999999987E-002     4.2285379205423537E-002
  -7.8999999999999987E-002     4.4349344987645201E-002
  -7.8499999999999986E-002     4.6506686315486448E-002
  -7.7999999999999986E-002     4.8762525610275637E-002
  -7.7499999999999986E-002     5.1119742394450760E-002
  -7.6999999999999985E-002     5.3584084303684013E-002
  -7.6499999999999985E-002     5.6159725003086275E-002
  -7.5999999999999984E-002     5.8850887276752417E-002
  -7.5499999999999984E-002     6.1662746092614559E-002
  -7.4999999999999983E-002     6.4600517847976241E-002
  -7.4499999999999983E-002     6.7666579397451868E-002
  -7.3999999999999982E-002     7.0869550748271143E-002
  -7.3499999999999982E-002     7.4213109867123012E-002
  -7.2999999999999982E-002     7.7704177406102110E-002
  -7.2499999999999981E-002     8.1348484865792187E-002
  -7.1999999999999981E-002     8.5150823118710833E-002
  -7.1499999999999980E-002     8.9119602349216787E-002
  -7.0999999999999980E-002     9.3261316488595980E-002
  -7.0499999999999979E-002     9.7583515409344318E-002
  -6.9999999999999979E-002    0.10208884058973616     
  -6.9499999999999978E-002    0.10678792757251390     
  -6.8999999999999978E-002    0.11168900876039045     
  -6.8499999999999978E-002    0.11679757048425943     
  -6.7999999999999977E-002    0.12212181609244230     
  -6.7499999999999977E-002    0.12767066367007074     
  -6.6999999999999976E-002    0.13345273801847662     
  -6.6499999999999976E-002    0.13947475810794485     
  -6.5999999999999975E-002    0.14574909070333053     
  -6.5499999999999975E-002    0.15228379359359684     
  -6.4999999999999974E-002    0.15908913696405824     
  -6.4499999999999974E-002    0.16617776788270711     
  -6.4000000000000001E-002    0.17355405093463394     
  -6.3500000000000001E-002    0.18123451649965522     
  -6.3000000000000000E-002    0.18922344200151264     
  -6.2500000000000000E-002    0.19753865473418342     
  -6.2000000000000000E-002    0.20618897123960822     
  -6.1499999999999999E-002    0.21518689045747164     
  -6.0999999999999999E-002    0.22454285277970365     
  -6.0499999999999998E-002    0.23427592796686947     
  -5.9999999999999998E-002    0.24439568315054006     
  -5.9499999999999997E-002    0.25491709049095057     
  -5.8999999999999997E-002    0.26584807987134762     
  -5.8499999999999996E-002    0.27721111748076832     
  -5.7999999999999996E-002    0.28901726388595406     
  -5.7499999999999996E-002    0.30128303590157057     
  -5.6999999999999995E-002    0.31401911980468555     
  -5.6499999999999995E-002    0.32725183107522915     
  -5.5999999999999994E-002    0.34099239165103323     
  -5.5499999999999994E-002    0.35525297179815885     
  -5.4999999999999993E-002    0.37006216056065411     
  -5.4499999999999993E-002    0.38542536115726278     
  -5.3999999999999992E-002    0.40136802878418965     
  -5.3499999999999992E-002    0.41790613522231845     
  -5.2999999999999992E-002    0.43505850992629613     
  -5.2499999999999991E-002    0.45285543662896943     
  -5.1999999999999991E-002    0.47130473632930459     
  -5.1499999999999990E-002    0.49043519702687677     
  -5.0999999999999990E-002    0.51026724816895630     
  -5.0499999999999989E-002    0.53082258461193232     
  -4.9999999999999989E-002    0.55212158969757463     
  -4.9499999999999988E-002    0.57418832650455398     
  -4.8999999999999988E-002    0.59705363195442951     
  -4.8499999999999988E-002    0.62072195025907240     
  -4.7999999999999987E-002    0.64524333175071624     
  -4.7499999999999987E-002    0.67062914801691909     
  -4.6999999999999986E-002    0.69690912041097386     
  -4.6499999999999986E-002    0.72410830111975955     
  -4.5999999999999985E-002    0.75224691108414476     
  -4.5499999999999985E-002    0.78137534553922139     
  -4.4999999999999984E-002    0.81151349036916254     
  -4.4499999999999984E-002    0.84267678666006063     
  -4.3999999999999984E-002    0.87489654015108043     
  -4.3499999999999983E-002    0.90822970963480465     
  -4.2999999999999983E-002    0.94266992881505152     
  -4.2499999999999982E-002    0.97825938977229843     
  -4.1999999999999982E-002     1.0150513498772011     
  -4.1499999999999981E-002     1.0530584049533420     
  -4.0999999999999981E-002     1.0923342467994952     
  -4.0499999999999980E-002     1.1328651643635226     
  -3.9999999999999980E-002     1.1747359492833511     
  -3.9499999999999980E-002     1.2179488474893310     
  -3.8999999999999979E-002     1.2625651877435873     
  -3.8499999999999979E-002     1.3085850974053996     
  -3.7999999999999978E-002     1.3560787166873611     
  -3.7499999999999978E-002     1.4050883787615822     
  -3.6999999999999977E-002     1.4556523429376669     
  -3.6499999999999977E-002     1.5077949410686635     
  -3.5999999999999976E-002     1.5615584942104510     
  -3.5499999999999976E-002     1.6169715365662896     
  -3.4999999999999976E-002     1.6741075730217423     
  -3.4499999999999975E-002     1.7329952645575322     
  -3.3999999999999975E-002     1.7936740547442884     
  -3.3499999999999974E-002     1.8561652712999210     
  -3.2999999999999974E-002     1.9205236635370904     
  -3.2499999999999973E-002     1.9867750782387130     
  -3.1999999999999973E-002     2.0549927129890824     
  -3.1500000000000000E-002     2.1251689856773739     
  -3.1000000000000000E-002     2.1974404453122016     
  -3.0499999999999999E-002     2.2717818168255732     
  -2.9999999999999999E-002     2.3482694593964615     
  -2.9499999999999998E-002     2.4269435864380329     
  -2.8999999999999998E-002     2.5078378514673636     
  -2.8499999999999998E-002     2.5910469690759808     
  -2.7999999999999997E-002     2.6765011021075349     
  -2.7499999999999997E-002     2.7643949914423036     
  -2.6999999999999996E-002     2.8546153057838834     
  -2.6499999999999996E-002     2.9473592092508056     
  -2.5999999999999995E-002     3.0426082355980384     
  -2.5499999999999995E-002     3.1403643836288699     
  -2.4999999999999994E-002     3.2407233661778783     
  -2.4499999999999994E-002     3.3437581966685794     
  -2.3999999999999994E-002     3.4494223871285108     
  -2.3499999999999993E-002     3.5578682639572587     
  -2.2999999999999993E-002     3.6690465167665725     
  -2.2499999999999992E-002     3.7830799561154826     
  -2.1999999999999992E-002     3.9000579896217076     
  -2.1499999999999991E-002     4.0199079640394189     
  -2.0999999999999991E-002     4.1427686550293501     
  -2.0499999999999990E-002     4.2687088597696228     
  -1.9999999999999990E-002     4.3977037536278054     
  -1.9499999999999990E-002     4.5298919749927666     
  -1.8999999999999989E-002     4.6652132337244332     
  -1.8499999999999989E-002     4.8036299561634781     
  -1.7999999999999988E-002     4.9454113983056658     
  -1.7499999999999988E-002     5.0903827180448324     
  -1.6999999999999987E-002     5.2387831971832508     
  -1.6499999999999987E-002     5.3903983044984010     
  -1.5999999999999986E-002     5.5455678553043999     
  -1.5499999999999986E-002     5.7041850011677173     
  -1.4999999999999986E-002     5.8662555624469928     
  -1.4499999999999985E-002     6.0317688513770555     
  -1.3999999999999985E-002     6.2011201072665330     
  -1.3499999999999984E-002     6.3739068256117086     
  -1.2999999999999984E-002     6.5503393860102115     
  -1.2499999999999983E-002     6.7305310165961849     
  -1.1999999999999983E-002     6.9142603273648966     
  -1.1499999999999982E-002     7.1018461145590486     
  -1.0999999999999982E-002     7.2929236901239847     
  -1.0499999999999982E-002     7.4878725251358595     
  -9.9999999999999811E-003     7.6866124911025189     
  -9.4999999999999807E-003     7.8889201526469215     
  -8.9999999999999802E-003     8.0952022393885947     
  -8.4999999999999798E-003     8.3056003162680412     
  -7.9999999999999793E-003     8.5198775100034965     
  -7.4999999999999789E-003     8.7380749540158895     
  -6.9999999999999785E-003     8.9602412487829639     
  -6.4999999999999780E-003     9.1861285173432385     
  -5.9999999999999776E-003     9.4159898902777677     
  -5.4999999999999771E-003     9.6498207097589237     
  -4.9999999999999767E-003     9.8873185291796126     
  -4.4999999999999762E-003     10.128526921964859     
  -3.9999999999999758E-003     10.373589641592208     
  -3.4999999999999754E-003     10.622772130830054     
  -2.9999999999999749E-003     10.875605956626444     
  -2.4999999999999745E-003     11.132609135099759     
  -1.9999999999999740E-003     11.393200017195205     
  -1.4999999999999736E-003     11.657635711267112     
  -9.9999999999997313E-004     11.926105774490068     
  -4.9999999999997269E-004     12.197687746003446     
   0.0000000000000000          12.473404500323390     
   5.0000000000000044E-004     12.752569741244706     
   1.0000000000000009E-003     13.035480177164629     
   1.5000000000000013E-003     13.322078889847468     
   2.0000000000000018E-003     13.611961673089098     
   2.5000000000000022E-003     13.905100939557194     
   3.0000000000000027E-003     14.202172552820791     
   3.5000000000000031E-003     14.502021514149952     
   4.0000000000000036E-003     14.805131170960209     
   4.5000000000000040E-003     15.111558746392276     
   5.0000000000000044E-003     15.420660427642368     
   5.5000000000000049E-003     15.732539568504087     
   6.0000000000000053E-003     16.047677788968642     
   6.5000000000000058E-003     16.364833619142253     
   7.0000000000000062E-003     16.684681236079328     
   7.5000000000000067E-003     17.006826084457188     
   8.0000000000000071E-003     17.331536781731572     
   8.5000000000000075E-003     17.658313499681022     
   9.0000000000000080E-003     17.987001424922248     
   9.5000000000000084E-003     18.317445590411900     
   1.0000000000000009E-002     18.650321785750627     
   1.0500000000000009E-002     18.985415265022361     
   1.1000000000000010E-002     19.321123864909474     
   1.1500000000000010E-002     19.659264635221767     
   1.2000000000000011E-002     19.998069273671483     
   1.2500000000000011E-002     20.338691655178479     
   1.3000000000000012E-002     20.680248743463672     
   1.3500000000000012E-002     21.021657391534760     
   1.4000000000000012E-002     21.362376660941642     
   1.4500000000000013E-002     21.704426665340257     
   1.5000000000000013E-002     22.045420896367141     
   1.5500000000000014E-002     22.387011080053462     
   1.6000000000000014E-002     22.727696663805069     
   1.6500000000000015E-002     23.067490676662622     
   1.7000000000000015E-002     23.405934004698672     
   1.7500000000000016E-002     23.743933557551614     
   1.8000000000000016E-002     24.081317936109826     
   1.8500000000000016E-002     24.415656648938167     
   1.9000000000000017E-002     24.748400462202014     
   1.9500000000000017E-002     25.077554594883786     
   2.0000000000000018E-002     25.404170600610392     
   2.0500000000000018E-002     25.727969139153167     
   2.1000000000000019E-002     26.048047095384995     
   2.1500000000000019E-002     26.364970655753076     
   2.2000000000000020E-002     26.678351217050839     
   2.2500000000000020E-002     26.986823877627991     
   2.3000000000000020E-002     27.291099010470493     
   2.3500000000000021E-002     27.589270368792182     
   2.4000000000000021E-002     27.883525840162516     
   2.4500000000000022E-002     28.172692421568364     
   2.5000000000000022E-002     28.455140506853887     
   2.5500000000000023E-002     28.730883317438082     
   2.6000000000000023E-002     28.999972966896753     
   2.6500000000000024E-002     29.262326329754810     
   2.7000000000000024E-002     29.517573496326282     
   2.7500000000000024E-002     29.764215622378682     
   2.8000000000000025E-002     30.004361174081186     
   2.8500000000000025E-002     30.235371016756989     
   2.9000000000000026E-002     30.457285302493375     
   2.9500000000000026E-002     30.666769467479071     
   3.0000000000000027E-002     30.870567341232999     
   3.0500000000000027E-002     31.060802629235120     
   3.1000000000000028E-002     31.238184563954299     
   3.1500000000000028E-002     31.407335080022662     
   3.2000000000000028E-002     31.562393671322980     