 -0.23999999999999999          0.0000000000000000     
 -0.23949999999999999          0.0000000000000000     
 -0.23899999999999999          0.0000000000000000     
 -0.23849999999999999          0.0000000000000000     
 -0.23799999999999999          0.0000000000000000     
 -0.23749999999999999          0.0000000000000000     
 -0.23699999999999999          0.0000000000000000     
 -0.23649999999999999          0.0000000000000000     
 -0.23599999999999999          0.0000000000000000     
 -0.23549999999999999          2.0559714096432861E-030
 -0.23499999999999999          3.6152883782082144E-029
 -0.23449999999999999          3.2879345029888676E-028
 -0.23399999999999999          2.0775920156123051E-027
 -0.23349999999999999          1.0222738103125621E-026
 -0.23299999999999998          4.1622182505285023E-026
 -0.23249999999999998          1.4572187099590490E-025
 -0.23199999999999998          4.5017074336732943E-025
 -0.23149999999999998          1.2497099481286553E-024
 -0.23099999999999998          3.1594151869843247E-024
 -0.23049999999999998          7.3461926441778389E-024
 -0.22999999999999998          1.5825293495103248E-023
 -0.22949999999999998          3.1750153226522078E-023
 -0.22899999999999998          5.9527355880715407E-023
 -0.22849999999999998          1.0445531415560237E-022
 -0.22799999999999998          1.7144456989039388E-022
 -0.22749999999999998          2.6227640051005247E-022
 -0.22699999999999998          3.7088531342550741E-022
 -0.22649999999999998          4.7642943345968658E-022
 -0.22599999999999998          5.3451050542138783E-022
 -0.22549999999999998          4.6799483518023975E-022
 -0.22499999999999998          1.6027889483537382E-022
 -0.22449999999999998         -5.4442857108023594E-022
 -0.22399999999999998         -1.8277544006540259E-021
 -0.22349999999999998         -3.8639381240261221E-021
 -0.22299999999999998         -6.7607175205749677E-021
 -0.22249999999999998         -1.0471490574575435E-020
 -0.22199999999999998         -1.4682099560421214E-020
 -0.22150000000000000         -1.8684936003623939E-020
 -0.22100000000000000         -2.1265765955155354E-020
 -0.22050000000000000         -2.0640556195292402E-020
 -0.22000000000000000         -1.4493553025598162E-020
 -0.21950000000000000         -1.7027418617041472E-022
 -0.21900000000000000          2.4919829665780247E-020
 -0.21850000000000000          6.2661986276980075E-020
 -0.21800000000000000          1.1335762544099129E-019
 -0.21750000000000000          1.7467088954754449E-019
 -0.21700000000000000          2.4053384336803545E-019
 -0.21650000000000000          3.0022271275419873E-019
 -0.21600000000000000          3.3789698743745693E-019
 -0.21550000000000000          3.3294107298624819E-019
 -0.21500000000000000          2.6144956063018057E-019
 -0.21450000000000000          9.9150074951475211E-020
 -0.21400000000000000         -1.7412279191009822E-019
 -0.21350000000000000         -5.6849794025449837E-019
 -0.21299999999999999         -1.0771533711843102E-018
 -0.21249999999999999         -1.6692356932277200E-018
 -0.21199999999999999         -2.2838966014665980E-018
 -0.21149999999999999         -2.8270133301903073E-018
 -0.21099999999999999         -3.1723981967237563E-018
 -0.21049999999999999         -3.1691995970380310E-018
 -0.20999999999999999         -2.6568718205294666E-018
 -0.20949999999999999         -1.4880817273893050E-018
 -0.20899999999999999          4.4091082976280816E-019
 -0.20849999999999999          3.1549724645114248E-018
 -0.20799999999999999          6.5637302017896866E-018
 -0.20749999999999999          1.0430055348246948E-017
 -0.20699999999999999          1.4350541684650276E-017
 -0.20649999999999999          1.7755773587221742E-017
 -0.20599999999999999          1.9937806210666718E-017
 -0.20549999999999999          2.0110284650708612E-017
 -0.20499999999999999          1.7503052825165026E-017
 -0.20449999999999999          1.1488301859517419E-017
 -0.20399999999999999          1.7283653777183143E-018
 -0.20349999999999999         -1.1670619812918990E-017
 -0.20299999999999999         -2.8023198692188107E-017
 -0.20249999999999999         -4.5974803376545416E-017
 -0.20199999999999999         -6.3486995230543720E-017
 -0.20149999999999998         -7.7927184545599065E-017
 -0.20099999999999998         -8.6281007374664988E-017
 -0.20049999999999998         -8.5494962988668322E-017
 -0.19999999999999998         -7.2936785154320170E-017
 -0.19949999999999998         -4.6937124736785692E-017
 -0.19899999999999998         -7.3530695063130074E-018
 -0.19849999999999998          4.3929653348665813E-017
 -0.19799999999999998          1.0265829744777368E-016
 -0.19749999999999998          1.6214008358370535E-016
 -0.19699999999999998          2.1353871229824404E-016
 -0.19649999999999998          2.4660199675510654E-016
 -0.19600000000000001          2.5085205190692801E-016
 -0.19550000000000001          2.1719113967908429E-016
 -0.19500000000000001          1.3980499841314122E-016
 -0.19450000000000001          1.8161253016320560E-017
 -0.19400000000000001         -1.4117986012488963E-016
 -0.19350000000000001         -3.2328254262238618E-016
 -0.19300000000000000         -5.0444270300181284E-016
 -0.19250000000000000         -6.5303003254028592E-016
 -0.19200000000000000         -7.3182652433582846E-016
 -0.19150000000000000         -7.0198032157970398E-016
 -0.19100000000000000         -5.2849392678034223E-016
 -0.19050000000000000         -1.8693065543865993E-016
 -0.19000000000000000          3.2928256332547892E-016
 -0.18950000000000000          1.0017907619074853E-015
 -0.18900000000000000          1.7815780239383585E-015
 -0.18850000000000000          2.5857799369510400E-015
 -0.18800000000000000          3.2982332168847932E-015
 -0.18750000000000000          3.7748202923811325E-015
 -0.18700000000000000          3.8543063509804121E-015
 -0.18650000000000000          3.3748423412450057E-015
 -0.18600000000000000          2.1956293109612679E-015
 -0.18550000000000000          2.2236636536446928E-016
 -0.18500000000000000         -2.5656022874469330E-015
 -0.18450000000000000         -6.0893890883856249E-015
 -0.18400000000000000         -1.0149559945613933E-014
 -0.18350000000000000         -1.4413787656909030E-014
 -0.18300000000000000         -1.8417119500762850E-014
 -0.18250000000000000         -2.1578005287263753E-014
 -0.18200000000000000         -2.3232567211466489E-014
 -0.18149999999999999         -2.2687595509232749E-014
 -0.18099999999999999         -1.9291390879994397E-014
 -0.18049999999999999         -1.2518435674741681E-014
 -0.17999999999999999         -2.0626799894366648E-015
 -0.17949999999999999          1.2069188864545458E-014
 -0.17899999999999999          2.9474147171968507E-014
 -0.17849999999999999          4.9290199429914754E-014
 -0.17799999999999999          7.0165376281136854E-014
 -0.17749999999999999          9.0269788552214565E-014
 -0.17699999999999999          1.0735783308214336E-013
 -0.17649999999999999          1.1888605736193661E-013
 -0.17599999999999999          1.2218642620568250E-013
 -0.17549999999999999          1.1469066598298215E-013
 -0.17499999999999999          9.4193641496852361E-014
 -0.17449999999999999          5.9140755558931741E-014
 -0.17399999999999999          8.9150516759051265E-015
 -0.17349999999999999         -5.5897148277087736E-014
 -0.17299999999999999         -1.3329556907548362E-013
 -0.17249999999999999         -2.1973399854540572E-013
 -0.17199999999999999         -3.1009180517997521E-013
 -0.17149999999999999         -3.9777227525417233E-013
 -0.17099999999999999         -4.7493724111011883E-013
 -0.17049999999999998         -5.3288380304352101E-013
 -0.16999999999999998         -5.6254998927405973E-013
 -0.16949999999999998         -5.5513627321262109E-013
 -0.16899999999999998         -5.0280654174924284E-013
 -0.16849999999999998         -3.9943448781652004E-013
 -0.16799999999999998         -2.4133685717736556E-013
 -0.16749999999999998         -2.7957288928789782E-014
 -0.16699999999999998          2.3756403733821966E-013
 -0.16649999999999998          5.4798315430828818E-013
 -0.16599999999999998          8.9173664715765543E-013
 -0.16549999999999998          1.2529610482375323E-012
 -0.16499999999999998          1.6117583991278181E-012
 -0.16449999999999998          1.9447220648757037E-012
 -0.16399999999999998          2.2256839300236861E-012
 -0.16349999999999998          2.4267050330490694E-012
 -0.16299999999999998          2.5192357262995682E-012
 -0.16249999999999998          2.4754420315161780E-012
 -0.16199999999999998          2.2696323427714734E-012
 -0.16149999999999998          1.8797752493935296E-012
 -0.16099999999999998          1.2890616465821805E-012
 -0.16049999999999998          4.8749820480209957E-013
 -0.15999999999999998         -5.2648854302156759E-013
 -0.15949999999999998         -1.7444443262385213E-012
 -0.15899999999999997         -3.1462610881338294E-012
 -0.15849999999999997         -4.6986646553542007E-012
 -0.15799999999999997         -6.3537097450057664E-012
 -0.15749999999999997         -8.0474362043119024E-012
 -0.15699999999999997         -9.6989052708100362E-012
 -0.15649999999999997         -1.1209550145707858E-011
 -0.15599999999999997         -1.2463321999403880E-011
 -0.15549999999999997         -1.3327739067255846E-011
 -0.15499999999999997         -1.3656219506459990E-011
 -0.15449999999999997         -1.3292030357609274E-011
 -0.15399999999999997         -1.2074188160566349E-011
 -0.15349999999999997         -9.8455691837239532E-012
 -0.15299999999999997         -6.4634424682737069E-012
 -0.15249999999999997         -1.8125783890591698E-012
 -0.15200000000000000          4.1795230774591648E-012
 -0.15150000000000000          1.1525441137668839E-011
 -0.15100000000000000          2.0159080398180122E-011
 -0.15049999999999999          2.9917251593420814E-011
 -0.14999999999999999          4.0521797440522521E-011
 -0.14949999999999999          5.1565057779671881E-011
 -0.14899999999999999          6.2499148472225149E-011
 -0.14849999999999999          7.2633010147632124E-011
 -0.14799999999999999          8.1137188017712401E-011
 -0.14749999999999999          8.7060179891644195E-011
 -0.14699999999999999          8.9357157911344271E-011
 -0.14649999999999999          8.6932337730264024E-011
 -0.14599999999999999          7.8696133278498317E-011
 -0.14549999999999999          6.3635871692229612E-011
 -0.14499999999999999          4.0900120489710297E-011
 -0.14449999999999999          9.8924376411814865E-012
 -0.14399999999999999         -2.9628167969247733E-011
 -0.14349999999999999         -7.7445359066745402E-011
 -0.14299999999999999         -1.3278880820413664E-010
 -0.14249999999999999         -1.9424975991784421E-010
 -0.14199999999999999         -2.5971702168528224E-010
 -0.14149999999999999         -3.2634203132718423E-010
 -0.14099999999999999         -3.9054002539198966E-010
 -0.14049999999999999         -4.4803770090053796E-010
 -0.13999999999999999         -4.9397038347496594E-010
 -0.13949999999999999         -5.2303528929613061E-010
 -0.13899999999999998         -5.2970204218460791E-010
 -0.13849999999999998         -5.0848134550537135E-010
 -0.13799999999999998         -4.5424188179836611E-010
 -0.13749999999999998         -3.6257450326386213E-010
 -0.13699999999999998         -2.3018407288001900E-010
 -0.13649999999999998         -5.5301917856266345E-011
 -0.13599999999999998          1.6191575517611700E-010
 -0.13550000000000001          4.1900757143324030E-010
 -0.13500000000000001          7.1088798654665200E-010
 -0.13450000000000001          1.0295968665277032E-009
 -0.13400000000000001          1.3641667466091487E-009
 -0.13350000000000001          1.7006149111170383E-009
 -0.13300000000000001          2.0220807159412311E-009
 -0.13250000000000001          2.3091517089994436E-009
 -0.13200000000000001          2.5403509757286180E-009
 -0.13150000000000001          2.6928384056328687E-009
 -0.13100000000000001          2.7432712147406540E-009
 -0.13050000000000000          2.6688537767610509E-009
 -0.13000000000000000          2.4485422668951233E-009
 -0.12950000000000000          2.0643506511290949E-009
 -0.12900000000000000          1.5027515329996191E-009
 -0.12850000000000000          7.5609177334351930E-010
 -0.12800000000000000         -1.7602292584345796E-010
 -0.12750000000000000         -1.2854354338050620E-009
 -0.12700000000000000         -2.5543476035002884E-009
 -0.12650000000000000         -3.9544337409136943E-009
 -0.12600000000000000         -5.4463308316992857E-009
 -0.12550000000000000         -6.9794463212413223E-009
 -0.12499999999999999         -8.4923680739177106E-009
 -0.12449999999999999         -9.9135921128718164E-009
 -0.12399999999999999         -1.1163025085707646E-008
 -0.12349999999999998         -1.2153925789298457E-008
 -0.12299999999999998         -1.2795532091891591E-008
 -0.12249999999999998         -1.2996261880974778E-008
 -0.12199999999999998         -1.2667411612299892E-008
 -0.12149999999999998         -1.1727473982089805E-008
 -0.12099999999999998         -1.0106672041624185E-008
 -0.12049999999999998         -7.7519124133565059E-009
 -0.12000000000000000         -4.6317456781275973E-009
 -0.11950000000000000         -7.4131440803118006E-010
 -0.11899999999999999          3.8930473218273995E-009
 -0.11849999999999999          9.2096201475310081E-009
 -0.11799999999999999          1.5108040652156469E-008
 -0.11749999999999999          2.1446950083301267E-008
 -0.11699999999999999          2.8042912634525606E-008
 -0.11649999999999999          3.4671002763351717E-008
 -0.11599999999999999          4.1067036993060241E-008
 -0.11549999999999999          4.6931854636715943E-008
 -0.11499999999999999          5.1937516775462756E-008
 -0.11449999999999999          5.5735983905348328E-008
 -0.11399999999999999          5.7969694781668339E-008
 -0.11349999999999999          5.8284296453118035E-008
 -0.11299999999999999          5.6343397560210758E-008
 -0.11249999999999999          5.1844778289512646E-008
 -0.11199999999999999          4.4537841470720724E-008
 -0.11149999999999999          3.4241630133624977E-008
 -0.11099999999999999          2.0862994034311562E-008
 -0.11049999999999999          4.4140102470286347E-009
 -0.10999999999999999         -1.4972244853052329E-008
 -0.10949999999999999         -3.7028269536726426E-008
 -0.10899999999999999         -6.1341578401352545E-008
 -0.10849999999999999         -8.7349308230557447E-008
 -0.10799999999999998         -1.1433665231391056E-007
 -0.10749999999999998         -1.4144195121942180E-007
 -0.10699999999999998         -1.6766762752546100E-007
 -0.10649999999999998         -1.9189832582444758E-007
 -0.10599999999999998         -2.1292599458602439E-007
 -0.10549999999999998         -2.2948168525711649E-007
 -0.10499999999999998         -2.4027460269582892E-007
 -0.10449999999999998         -2.4403691216285222E-007
 -0.10399999999999998         -2.3957348497811257E-007
 -0.10349999999999998         -2.2581679834255587E-007
 -0.10299999999999998         -2.0188256323281334E-007
 -0.10249999999999998         -1.6712672987917918E-007
 -0.10199999999999998         -1.2120116171926968E-007
 -0.10149999999999998         -6.4105532384796402E-008
 -0.10099999999999998          3.7672643197244590E-009
 -0.10049999999999998          8.1593851574901244E-008
  -9.9999999999999978E-002     1.6809351385343758E-007
  -9.9499999999999977E-002     2.6151508855904095E-007
  -9.8999999999999977E-002     3.5963739253226224E-007
  -9.8499999999999976E-002     4.5978768718398449E-007
  -9.7999999999999976E-002     5.5887619577936486E-007
  -9.7499999999999976E-002     6.5344968077420269E-007
  -9.6999999999999975E-002     7.3976268366745502E-007
  -9.6499999999999975E-002     8.1386828495127432E-007
  -9.5999999999999974E-002     8.7172256517718189E-007
  -9.5500000000000002E-002     9.0930818425532195E-007
  -9.5000000000000001E-002     9.2276391170617151E-007
  -9.4500000000000001E-002     9.0853083432372922E-007
  -9.4000000000000000E-002     8.6349857914293374E-007
  -9.3500000000000000E-002     7.8515487426570969E-007
  -9.2999999999999999E-002     6.7173305362611077E-007
  -9.2499999999999999E-002     5.2234778514074149E-007
  -9.1999999999999998E-002     3.3712261108386556E-007
  -9.1499999999999998E-002     1.1729441283025437E-007
  -9.0999999999999998E-002    -1.3470020427154347E-007
  -9.0499999999999997E-002    -4.1517319300817728E-007
  -8.9999999999999997E-002    -7.1915786388848131E-007
  -8.9499999999999996E-002    -1.0404230616297240E-006
  -8.8999999999999996E-002    -1.3715233796115797E-006
  -8.8499999999999995E-002    -1.7038904286873976E-006
  -8.7999999999999995E-002    -2.0279664238918035E-006
  -8.7499999999999994E-002    -2.3333802765573684E-006
  -8.6999999999999994E-002    -2.6091597274944759E-006
  -8.6499999999999994E-002    -2.8439834353596002E-006
  -8.5999999999999993E-002    -3.0264738136018600E-006
  -8.5499999999999993E-002    -3.1455049764785889E-006
  -8.4999999999999992E-002    -3.1905429372482975E-006
  -8.4499999999999992E-002    -3.1519985848448501E-006
  -8.3999999999999991E-002    -3.0215846697735234E-006
  -8.3499999999999991E-002    -2.7926711646344166E-006
  -8.2999999999999990E-002    -2.4606295565404378E-006
  -8.2499999999999990E-002    -2.0231435940625167E-006
  -8.1999999999999990E-002    -1.4805002497830134E-006
  -8.1499999999999989E-002    -8.3581778125019799E-007
  -8.0999999999999989E-002    -9.5230717191287032E-008
  -8.0499999999999988E-002     7.3198711397097493E-007
  -7.9999999999999988E-002     1.6333960745619912E-006
  -7.9499999999999987E-002     2.5934202119981226E-006
  -7.8999999999999987E-002     3.5934730062864561E-006
  -7.8499999999999986E-002     4.6121702280973136E-006
  -7.7999999999999986E-002     5.6256364580005157E-006
  -7.7499999999999986E-002     6.6078936238905198E-006
  -7.6999999999999985E-002     7.5313358874616682E-006
  -7.6499999999999985E-002     8.3672893211187185E-006
  -7.5999999999999984E-002     9.0866186046784028E-006
  -7.5499999999999984E-002     9.6604238418673874E-006
  -7.4999999999999983E-002     1.0060734931358966E-005
  -7.4499999999999983E-002     1.0261275066915592E-005
  -7.3999999999999982E-002     1.0238207023299149E-005
  -7.3499999999999982E-002     9.9708679886952227E-006
  -7.2999999999999982E-002     9.4425081662099989E-006
  -7.2499999999999981E-002     8.6409419122356930E-006
  -7.1999999999999981E-002     7.5591482103511404E-006
  -7.1499999999999980E-002     6.1958092184177323E-006
  -7.0999999999999980E-002     4.5557119451475276E-006
  -7.0499999999999979E-002     2.6500691135500229E-006
  -6.9999999999999979E-002     4.9671380357848034E-007
  -6.9499999999999978E-002    -1.8798558234632600E-006
  -6.8999999999999978E-002    -4.4485668251927782E-006
  -6.8499999999999978E-002    -7.1719409237375770E-006
  -6.7999999999999977E-002    -1.0006513052354885E-005
  -6.7499999999999977E-002    -1.2903272348599099E-005
  -6.6999999999999976E-002    -1.5808280423988618E-005
  -6.6499999999999976E-002    -1.8663423395678737E-005
  -6.5999999999999975E-002    -2.1407237713888562E-005
  -6.5499999999999975E-002    -2.3975825134085682E-005
  -6.4999999999999974E-002    -2.6303869302511389E-005
  -6.4499999999999974E-002    -2.8325700875381489E-005
  -6.4000000000000001E-002    -2.9976439422156860E-005
  -6.3500000000000001E-002    -3.1193096528206616E-005
  -6.3000000000000000E-002    -3.1915782459003144E-005
  -6.2500000000000000E-002    -3.2088861185265110E-005
  -6.2000000000000000E-002    -3.1662096308060759E-005
  -6.1499999999999999E-002    -3.0591816352083296E-005
  -6.0999999999999999E-002    -2.8842008778878712E-005
  -6.0499999999999998E-002    -2.6385337222143563E-005
  -5.9999999999999998E-002    -2.3204186276137846E-005
  -5.9499999999999997E-002    -1.9291582486146541E-005
  -5.8999999999999997E-002    -1.4652002295729351E-005
  -5.8499999999999996E-002    -9.3021443646680437E-006
  -5.7999999999999996E-002    -3.2716133576752731E-006
  -5.7499999999999996E-002     3.3965845714779424E-006
  -5.6999999999999995E-002     1.0645654960379033E-005
  -5.6499999999999995E-002     1.8404651004459055E-005
  -5.5999999999999994E-002     2.6588506378513906E-005
  -5.5499999999999994E-002     3.5098013130738062E-005
  -5.4999999999999993E-002     4.3820162572032514E-005
  -5.4499999999999993E-002     5.2628543845622390E-005
  -5.3999999999999992E-002     6.1384222813315331E-005
  -5.3499999999999992E-002     6.9936405506781395E-005
  -5.2999999999999992E-002     7.8123926191612240E-005
  -5.2499999999999991E-002     8.5776680277252417E-005
  -5.1999999999999991E-002     9.2717144004181992E-005
  -5.1499999999999990E-002     9.8762733470951090E-005
  -5.0999999999999990E-002     1.0372784804835431E-004
  -5.0499999999999989E-002     1.0742665401865661E-004
  -4.9999999999999989E-002     1.0967571402356762E-004
  -4.9499999999999988E-002     1.1029727942629828E-004
  -4.8999999999999988E-002     1.0912242703192671E-004
  -4.8499999999999988E-002     1.0599459482445055E-004
  -4.7999999999999987E-002     1.0077323127609255E-004
  -4.7499999999999987E-002     9.3337381681992142E-005
  -4.6999999999999986E-002     8.3589649662729648E-005
  -4.6499999999999986E-002     7.1459923362817530E-005
  -4.5999999999999985E-002     5.6908784149608396E-005
  -4.5499999999999985E-002     3.9931399973945438E-005
  -4.4999999999999984E-002     2.0560578422097847E-005
  -4.4499999999999984E-002    -1.1299308084147361E-006
  -4.3999999999999984E-002    -2.5023103504439700E-005
  -4.3499999999999983E-002    -5.0956138773178392E-005
  -4.2999999999999983E-002    -7.8719100872123740E-005
  -4.2499999999999982E-002    -1.0805341711411028E-004
  -4.1999999999999982E-002    -1.3865187125840635E-004
  -4.1499999999999981E-002    -1.7015827012635784E-004
  -4.0999999999999981E-002    -2.0216962241440326E-004
  -4.0499999999999980E-002    -2.3423749061893327E-004
  -3.9999999999999980E-002    -2.6587030621286553E-004
  -3.9499999999999980E-002    -2.9653883317884422E-004
  -3.8999999999999979E-002    -3.2567852969301214E-004
  -3.8499999999999979E-002    -3.5269834249577602E-004
  -3.7999999999999978E-002    -3.7698326189704518E-004
  -3.7499999999999978E-002    -3.9790643338651299E-004
  -3.6999999999999977E-002    -4.1483375099389964E-004
  -3.6499999999999977E-002    -4.2713583415128080E-004
  -3.5999999999999976E-002    -4.3419515791001342E-004
  -3.5499999999999976E-002    -4.3541937067611978E-004
  -3.4999999999999976E-002    -4.3024900418551539E-004
  -3.4499999999999975E-002    -4.1817293823555080E-004
  -3.3999999999999975E-002    -3.9873593811788155E-004
  -3.3499999999999974E-002    -3.7155115650793153E-004
  -3.2999999999999974E-002    -3.3631245270958712E-004
  -3.2499999999999973E-002    -2.9280327148970323E-004
  -3.1999999999999973E-002    -2.4091059066470887E-004
  -3.1500000000000000E-002    -1.8062826269825367E-004
  -3.1000000000000000E-002    -1.1207283603110213E-004
  -3.0499999999999999E-002    -3.5483689206123757E-005
  -2.9999999999999999E-002     4.8763044584318178E-005
  -2.9499999999999998E-002     1.4015759394915653E-004
  -2.8999999999999998E-002     2.3804858354226305E-004
  -2.8499999999999998E-002     3.4164380215303083E-004
  -2.7999999999999997E-002     4.5000754568924714E-004
  -2.7499999999999997E-002     5.6206681234332798E-004
  -2.6999999999999996E-002     6.7661598654825995E-004
  -2.6499999999999996E-002     7.9231468878521974E-004
  -2.5999999999999995E-002     9.0771607568287298E-004
  -2.5499999999999995E-002     1.0212511400888432E-003
  -2.4999999999999994E-002     1.1312564570218847E-003
  -2.4499999999999994E-002     1.2359902661368903E-003
  -2.3999999999999994E-002     1.3336355448971585E-003
  -2.3499999999999993E-002     1.4223389782445043E-003
  -2.2999999999999993E-002     1.5002038619145656E-003
  -2.2499999999999992E-002     1.5653239121546977E-003
  -2.1999999999999992E-002     1.6158191391313103E-003
  -2.1499999999999991E-002     1.6498343716321758E-003
  -2.0999999999999991E-002     1.6655760976779107E-003
  -2.0499999999999990E-002     1.6613431643189424E-003
  -1.9999999999999990E-002     1.6355443495667623E-003
  -1.9499999999999990E-002     1.5867193819943913E-003
  -1.8999999999999989E-002     1.5135811497744562E-003
  -1.8499999999999989E-002     1.4150521187008651E-003
  -1.7999999999999988E-002     1.2902640718608445E-003
  -1.7499999999999988E-002     1.1385857131124683E-003
  -1.6999999999999987E-002     9.5969844764251251E-004
  -1.6499999999999987E-002     7.5356445383945752E-004
  -1.5999999999999986E-002     5.2046548067091313E-004
  -1.5499999999999986E-002     2.6106779389299239E-004
  -1.4999999999999986E-002    -2.3585231369157135E-005
  -1.4499999999999985E-002    -3.3207881715365244E-004
  -1.3999999999999985E-002    -6.6253846733862164E-004
  -1.3499999999999984E-002    -1.0126761657937859E-003
  -1.2999999999999984E-002    -1.3797471880701937E-003
  -1.2499999999999983E-002    -1.7605032258303285E-003
  -1.1999999999999983E-002    -2.1513022145894091E-003
  -1.1499999999999982E-002    -2.5479059298263076E-003
  -1.0999999999999982E-002    -2.9456885551271492E-003
  -1.0499999999999982E-002    -3.3394941094853072E-003
  -9.9999999999999811E-003    -3.7236527753974702E-003
  -9.4999999999999807E-003    -4.0921174665004383E-003
  -8.9999999999999802E-003    -4.4382477844775855E-003
  -8.4999999999999798E-003    -4.7550299703021329E-003
  -7.9999999999999793E-003    -5.0350550353500086E-003
  -7.4999999999999789E-003    -5.2704182203262666E-003
  -6.9999999999999785E-003    -5.4528796401296618E-003
  -6.4999999999999780E-003    -5.5738571569395939E-003
  -5.9999999999999776E-003    -5.6243751388518415E-003
  -5.4999999999999771E-003    -5.5953031870318616E-003
  -4.9999999999999767E-003    -5.4770375430372659E-003
  -4.4999999999999762E-003    -5.2599522728371054E-003
  -3.9999999999999758E-003    -4.9341034687563831E-003
  -3.4999999999999754E-003    -4.4894919546661039E-003
  -2.9999999999999749E-003    -3.9158081316245279E-003
  -2.4999999999999745E-003    -3.2028790593824847E-003
  -1.9999999999999740E-003    -2.3402878306633818E-003
  -1.4999999999999736E-003    -1.3177303110463957E-003
  -9.9999999999997313E-004    -1.2483590832736060E-004
  -4.9999999999997269E-004     1.2489341656521128E-003
   0.0000000000000000          2.8138089187460360E-003
   5.0000000000000044E-004     4.5802857428186555E-003
   1.0000000000000009E-003     6.5585720201704351E-003
   1.5000000000000013E-003     8.7589937244764281E-003
   2.0000000000000018E-003     1.1191718382184131E-002
   2.5000000000000022E-003     1.3867082798642589E-002
   3.0000000000000027E-003     1.6795693032151216E-002
   3.5000000000000031E-003     1.9987506758791403E-002
   4.0000000000000036E-003     2.3453113987885167E-002
   4.5000000000000040E-003     2.7203376676217431E-002
   5.0000000000000044E-003     3.1248966594643456E-002
   5.5000000000000049E-003     3.5601083192749974E-002
   6.0000000000000053E-003     4.0271378202470884E-002
   6.5000000000000058E-003     4.5271891468395206E-002
   7.0000000000000062E-003     5.0615010125899709E-002
   7.5000000000000067E-003     5.6314182898185988E-002
   8.0000000000000071E-003     6.2383105769241880E-002
   8.5000000000000075E-003     6.8837348920834165E-002
   9.0000000000000080E-003     7.5692758765214099E-002
   9.5000000000000084E-003     8.2966445284771873E-002
   1.0000000000000009E-002     9.0676998328813097E-002
   1.0500000000000009E-002     9.8844990216819278E-002
   1.1000000000000010E-002    0.10749128698307765     
   1.1500000000000010E-002    0.11664131814762781     
   1.2000000000000011E-002    0.12632006164102602     
   1.2500000000000011E-002    0.13655570987587104     
   1.3000000000000012E-002    0.14738022163274811     
   1.3500000000000012E-002    0.15882513434769943     
   1.4000000000000012E-002    0.17092748113502371     
   1.4500000000000013E-002    0.18372796470047420     
   1.5000000000000013E-002    0.19726704366133041     
   1.5500000000000014E-002    0.21159337769378428     
   1.6000000000000014E-002    0.22675607383549698     
   1.6500000000000015E-002    0.24281090662176197     
   1.7000000000000015E-002    0.25981599442449876     
   1.7500000000000016E-002    0.27783515511266560     
   1.8000000000000016E-002    0.29693767340438620     
   1.8500000000000016E-002    0.31719625862636969     
   1.9000000000000017E-002    0.33869093789308152     
   1.9500000000000017E-002    0.36150761025073030     
   2.0000000000000018E-002    0.38573793403946544     
   2.0500000000000018E-002    0.41147941646166070     
   2.1000000000000019E-002    0.43883664963810098     
   2.1500000000000019E-002    0.46792287810916472     
   2.2000000000000020E-002    0.49885760973196713     
   2.2500000000000020E-002    0.53176882974310868     
   2.3000000000000020E-002    0.56679301509412472     
   2.3500000000000021E-002    0.60407454043155062     
   2.4000000000000021E-002    0.64376901070547865     
   2.4500000000000022E-002    0.68603511055482258     
   2.5000000000000022E-002    0.73105406449340249     
   2.5500000000000023E-002    0.77900876334868707     
   2.6000000000000023E-002    0.83009335684756569     
   2.6500000000000024E-002    0.88452124929129450     
   2.7000000000000024E-002    0.94250574124881692     
   2.7500000000000024E-002     1.0042788266513711     
   2.8000000000000025E-002     1.0700902338432301     
   2.8500000000000025E-002     1.1402030485918604     
   2.9000000000000026E-002     1.2148889887304370     
   2.9500000000000026E-002     1.2944412658620341     
   3.0000000000000027E-002     1.3791645149317424     
   3.0500000000000027E-002     1.4693915450195136     
   3.1000000000000028E-002     1.5654628825419659     
   3.1500000000000028E-002     1.6677491636779442     
   3.2000000000000028E-002     1.7766227694481227     