 -0.23999999999999999          0.0000000000000000     
 -0.23949999999999999          3.2316213594008047E-010
 -0.23899999999999999          1.6007599690226471E-009
 -0.23849999999999999          4.3985801667645319E-009
 -0.23799999999999999          9.1518650435773452E-009
 -0.23749999999999999          1.6114924505927775E-008
 -0.23699999999999999          2.5330759712005602E-008
 -0.23649999999999999          3.6623571730842741E-008
 -0.23599999999999999          4.9614275354770143E-008
 -0.23549999999999999          6.3756644408385910E-008
 -0.23499999999999999          7.8389518876065267E-008
 -0.23449999999999999          9.2799176343305589E-008
 -0.23399999999999999          1.0628532010059644E-007
 -0.23349999999999999          1.1822434231589796E-007
 -0.23299999999999998          1.2812424188268778E-007
 -0.23249999999999998          1.3566678092047368E-007
 -0.23199999999999998          1.4073408749482041E-007
 -0.23149999999999998          1.4341834742026549E-007
 -0.23099999999999998          1.4401446435385878E-007
 -0.23049999999999998          1.4299700978881447E-007
 -0.22999999999999998          1.4098372957960237E-007
 -0.22949999999999998          1.3868842074771237E-007
 -0.22899999999999998          1.3686698707715550E-007
 -0.22849999999999998          1.3626068096073141E-007
 -0.22799999999999998          1.3754082317518623E-007
 -0.22749999999999998          1.4125944858278672E-007
 -0.22699999999999998          1.4780988522034022E-007
 -0.22649999999999998          1.5740053527224518E-007
 -0.22599999999999998          1.7004445851398486E-007
 -0.22549999999999998          1.8556590930529637E-007
 -0.22499999999999998          2.0362303132515081E-007
 -0.22449999999999998          2.2374491948085051E-007
 -0.22399999999999998          2.4537919784961559E-007
 -0.22349999999999998          2.6794569407684321E-007
 -0.22299999999999998          2.9089079589539324E-007
 -0.22249999999999998          3.1373721753880091E-007
 -0.22199999999999998          3.3612525385251502E-007
 -0.22150000000000000          3.5784162832896982E-007
 -0.22100000000000000          3.7883486925238685E-007
 -0.22050000000000000          3.9921698657963134E-007
 -0.22000000000000000          4.1925278537746635E-007
 -0.21950000000000000          4.3933991378253268E-007
 -0.21900000000000000          4.5998157816029561E-007
 -0.21850000000000000          4.8175604661082616E-007
 -0.21800000000000000          5.0528501560620498E-007
 -0.21750000000000000          5.3120317033972242E-007
 -0.21700000000000000          5.6012942195593496E-007
 -0.21650000000000000          5.9264147012072499E-007
 -0.21600000000000000          6.2925346355768852E-007
 -0.21550000000000000          6.7039673012914136E-007
 -0.21500000000000000          7.1640448595644557E-007
 -0.21450000000000000          7.6750075095333159E-007
 -0.21400000000000000          8.2379608556948369E-007
 -0.21350000000000000          8.8529031927464530E-007
 -0.21299999999999999          9.5188318027794594E-007
 -0.21249999999999999          1.0233933380732196E-006
 -0.21199999999999999          1.0995846650985186E-006
 -0.21149999999999999          1.1802000017269165E-006
 -0.21099999999999999          1.2649970813072287E-006
 -0.21049999999999999          1.3537833183363546E-006
 -0.20999999999999999          1.4464483228948666E-006
 -0.20949999999999999          1.5429885706907953E-006
 -0.20899999999999999          1.6435221823485335E-006
 -0.20849999999999999          1.7482933571955073E-006
 -0.20799999999999999          1.8576685079096933E-006
 -0.20749999999999999          1.9721264834515750E-006
 -0.20699999999999999          2.0922423118463485E-006
 -0.20649999999999999          2.2186709429661278E-006
 -0.20599999999999999          2.3521292860095855E-006
 -0.20549999999999999          2.4933847271313425E-006
 -0.20499999999999999          2.6432460344949504E-006
 -0.20449999999999999          2.8025551728205755E-006
 -0.20399999999999999          2.9721795726800337E-006
 -0.20349999999999999          3.1530064461549046E-006
 -0.20299999999999999          3.3459327823948115E-006
 -0.20249999999999999          3.5518478398444131E-006
 -0.20199999999999999          3.7716210954386042E-006
 -0.20149999999999998          4.0060817809717264E-006
 -0.20099999999999998          4.2560041038086638E-006
 -0.20049999999999998          4.5221045184007380E-006
 -0.19999999999999998          4.8050419536593836E-006
 -0.19949999999999998          5.1054330469924025E-006
 -0.19899999999999998          5.4238807933870703E-006
 -0.19849999999999998          5.7610077419667505E-006
 -0.19799999999999998          6.1174928305263165E-006
 -0.19749999999999998          6.4941159507725388E-006
 -0.19699999999999998          6.8917929638701025E-006
 -0.19649999999999998          7.3115902523568366E-006
 -0.19600000000000001          7.7547292676172219E-006
 -0.19550000000000001          8.2225806181668304E-006
 -0.19500000000000001          8.7166372395586222E-006
 -0.19450000000000001          9.2384798335842788E-006
 -0.19400000000000001          9.7897573141381145E-006
 -0.19350000000000001          1.0372153155913111E-005
 -0.19300000000000000          1.0987378118443303E-005
 -0.19250000000000000          1.1637175703071989E-005
 -0.19200000000000000          1.2323337614361662E-005
 -0.19150000000000000          1.3047759239270817E-005
 -0.19100000000000000          1.3812469660479110E-005
 -0.19050000000000000          1.4619680769101251E-005
 -0.19000000000000000          1.5471823644475080E-005
 -0.18950000000000000          1.6371552192140371E-005
 -0.18900000000000000          1.7321735867881216E-005
 -0.18850000000000000          1.8325437849853188E-005
 -0.18800000000000000          1.9385875930311158E-005
 -0.18750000000000000          2.0506364307948388E-005
 -0.18700000000000000          2.1690268113161437E-005
 -0.18650000000000000          2.2940972485230304E-005
 -0.18600000000000000          2.4261857106466778E-005
 -0.18550000000000000          2.5656321668066084E-005
 -0.18500000000000000          2.7127804060000926E-005
 -0.18450000000000000          2.8679836759692989E-005
 -0.18400000000000000          3.0316121410578489E-005
 -0.18350000000000000          3.2040581572800875E-005
 -0.18300000000000000          3.3857428206829354E-005
 -0.18250000000000000          3.5771190596278757E-005
 -0.18200000000000000          3.7786739994771779E-005
 -0.18149999999999999          3.9909275074023753E-005
 -0.18099999999999999          4.2144296457991004E-005
 -0.18049999999999999          4.4497570343082771E-005
 -0.17999999999999999          4.6975139412097633E-005
 -0.17949999999999999          4.9583304644329473E-005
 -0.17899999999999999          5.2328567107906565E-005
 -0.17849999999999999          5.5217697081388906E-005
 -0.17799999999999999          5.8257741329725832E-005
 -0.17749999999999999          6.1456070397980511E-005
 -0.17699999999999999          6.4820480474736542E-005
 -0.17649999999999999          6.8359222495928407E-005
 -0.17599999999999999          7.2080998506862670E-005
 -0.17549999999999999          7.5994998042006046E-005
 -0.17499999999999999          8.0110898124985397E-005
 -0.17449999999999999          8.4438841440714896E-005
 -0.17399999999999999          8.8989407231565565E-005
 -0.17349999999999999          9.3773538537789136E-005
 -0.17299999999999999          9.8802513093687594E-005
 -0.17249999999999999          1.0408797970740125E-004
 -0.17199999999999999          1.0964196553686634E-004
 -0.17149999999999999          1.1547686153789982E-004
 -0.17099999999999999          1.2160548067186028E-004
 -0.17049999999999998          1.2804119614884257E-004
 -0.16999999999999998          1.3479801418725401E-004
 -0.16949999999999998          1.4189061766956002E-004
 -0.16899999999999998          1.4933441707398742E-004
 -0.16849999999999998          1.5714556502643973E-004
 -0.16799999999999998          1.6534108726773411E-004
 -0.16749999999999998          1.7393875168636441E-004
 -0.16699999999999998          1.8295705376658589E-004
 -0.16649999999999998          1.9241536210756749E-004
 -0.16599999999999998          2.0233375835232437E-004
 -0.16549999999999998          2.1273303718771785E-004
 -0.16499999999999998          2.2363492462318391E-004
 -0.16449999999999998          2.3506193247158080E-004
 -0.16399999999999998          2.4703727103769779E-004
 -0.16349999999999998          2.5958518381230533E-004
 -0.16299999999999998          2.7273112209513783E-004
 -0.16249999999999998          2.8650154126808047E-004
 -0.16199999999999998          3.0092411907389760E-004
 -0.16149999999999998          3.1602784292772412E-004
 -0.16099999999999998          3.3184280619025230E-004
 -0.16049999999999998          3.4840023727156222E-004
 -0.15999999999999998          3.6573255783878267E-004
 -0.15949999999999998          3.8387338281609118E-004
 -0.15899999999999997          4.0285760769620538E-004
 -0.15849999999999997          4.2272132122889161E-004
 -0.15799999999999997          4.4350165990181267E-004
 -0.15749999999999997          4.6523718629032373E-004
 -0.15699999999999997          4.8796791816130280E-004
 -0.15649999999999997          5.1173538668081164E-004
 -0.15599999999999997          5.3658289834856987E-004
 -0.15549999999999997          5.6255533127114177E-004
 -0.15499999999999997          5.8969942620024085E-004
 -0.15449999999999997          6.1806355370208621E-004
 -0.15399999999999997          6.4769800519570708E-004
 -0.15349999999999997          6.7865516757592559E-004
 -0.15299999999999997          7.1098876651376486E-004
 -0.15249999999999997          7.4475479777902365E-004
 -0.15200000000000000          7.8001146903261542E-004
 -0.15150000000000000          8.1681879237294197E-004
 -0.15100000000000000          8.5523875895887613E-004
 -0.15049999999999999          8.9533545542508364E-004
 -0.14999999999999999          9.3717518029734492E-004
 -0.14949999999999999          9.8082656040787697E-004
 -0.14899999999999999          1.0263613658025861E-003
 -0.14849999999999999          1.0738534620031714E-003
 -0.14799999999999999          1.1233784025534987E-003
 -0.14749999999999999          1.1750147677958012E-003
 -0.14699999999999999          1.2288447469472885E-003
 -0.14649999999999999          1.2849532067775726E-003
 -0.14599999999999999          1.3434278080239892E-003
 -0.14549999999999999          1.4043587725609541E-003
 -0.14499999999999999          1.4678389998152852E-003
 -0.14449999999999999          1.5339637175202370E-003
 -0.14399999999999999          1.6028318786993623E-003
 -0.14349999999999999          1.6745455795899034E-003
 -0.14299999999999999          1.7492104088887572E-003
 -0.14249999999999999          1.8269357969984412E-003
 -0.14199999999999999          1.9078331533819437E-003
 -0.14149999999999999          1.9920177292078733E-003
 -0.14099999999999999          2.0796086173504591E-003
 -0.14049999999999999          2.1707285195589066E-003
 -0.13999999999999999          2.2655040957033634E-003
 -0.13949999999999999          2.3640657309442759E-003
 -0.13899999999999998          2.4665475357323885E-003
 -0.13849999999999998          2.5730892084538937E-003
 -0.13799999999999998          2.6838339399546385E-003
 -0.13749999999999998          2.7989284135401249E-003
 -0.13699999999999998          2.9185228049755096E-003
 -0.13649999999999998          3.0427703168243170E-003
 -0.13599999999999998          3.1718299724161625E-003
 -0.13550000000000001          3.3058661501854658E-003
 -0.13500000000000001          3.4450478851795197E-003
 -0.13450000000000001          3.5895493347197771E-003
 -0.13400000000000001          3.7395488470792770E-003
 -0.13350000000000001          3.8952298928052187E-003
 -0.13300000000000001          4.0567805990576744E-003
 -0.13250000000000001          4.2243925854563713E-003
 -0.13200000000000001          4.3982635252177715E-003
 -0.13150000000000001          4.5785983093082905E-003
 -0.13100000000000001          4.7656055539846420E-003
 -0.13050000000000000          4.9594989977777004E-003
 -0.13000000000000000          5.1604984328150749E-003
 -0.12950000000000000          5.3688264451920986E-003
 -0.12900000000000000          5.5847112089395523E-003
 -0.12850000000000000          5.8083897456526756E-003
 -0.12800000000000000          6.0401018708944321E-003
 -0.12750000000000000          6.2800920568406582E-003
 -0.12700000000000000          6.5286131575703621E-003
 -0.12650000000000000          6.7859273403882980E-003
 -0.12600000000000000          7.0523032918572426E-003
 -0.12550000000000000          7.3280092328786850E-003
 -0.12499999999999999          7.6133208349347115E-003
 -0.12449999999999999          7.9085230827331543E-003
 -0.12399999999999999          8.2139018923044205E-003
 -0.12349999999999998          8.5297515615820885E-003
 -0.12299999999999998          8.8563691824674606E-003
 -0.12249999999999998          9.1940555721521378E-003
 -0.12199999999999998          9.5431208610534668E-003
 -0.12149999999999998          9.9038826301693916E-003
 -0.12099999999999998          1.0276667773723602E-002
 -0.12049999999999998          1.0661809705197811E-002
 -0.12000000000000000          1.1059652082622051E-002
 -0.11950000000000000          1.1470550671219826E-002
 -0.11899999999999999          1.1894863098859787E-002
 -0.11849999999999999          1.2332941405475140E-002
 -0.11799999999999999          1.2785140424966812E-002
 -0.11749999999999999          1.3251818716526031E-002
 -0.11699999999999999          1.3733349740505219E-002
 -0.11649999999999999          1.4230115339159966E-002
 -0.11599999999999999          1.4742495492100716E-002
 -0.11549999999999999          1.5270881354808807E-002
 -0.11499999999999999          1.5815678983926773E-002
 -0.11449999999999999          1.6377294436097145E-002
 -0.11399999999999999          1.6956139355897903E-002
 -0.11349999999999999          1.7552621662616730E-002
 -0.11299999999999999          1.8167154863476753E-002
 -0.11249999999999999          1.8800185993313789E-002
 -0.11199999999999999          1.9452152773737907E-002
 -0.11149999999999999          2.0123481750488281E-002
 -0.11099999999999999          2.0814593881368637E-002
 -0.11049999999999999          2.1525938063859940E-002
 -0.10999999999999999          2.2257972508668900E-002
 -0.10949999999999999          2.3011131212115288E-002
 -0.10899999999999999          2.3785870522260666E-002
 -0.10849999999999999          2.4582656100392342E-002
 -0.10799999999999998          2.5401959195733070E-002
 -0.10749999999999998          2.6244247332215309E-002
 -0.10699999999999998          2.7109982445836067E-002
 -0.10649999999999998          2.7999646961688995E-002
 -0.10599999999999998          2.8913723304867744E-002
 -0.10549999999999998          2.9852699488401413E-002
 -0.10499999999999998          3.0817056074738503E-002
 -0.10449999999999998          3.1807277351617813E-002
 -0.10399999999999998          3.2823834568262100E-002
 -0.10349999999999998          3.3867180347442627E-002
 -0.10299999999999998          3.4937795251607895E-002
 -0.10249999999999998          3.6036174744367599E-002
 -0.10199999999999998          3.7162784487009048E-002
 -0.10149999999999998          3.8318086415529251E-002
 -0.10099999999999998          3.9502564817667007E-002
 -0.10049999999999998          4.0716700255870819E-002
  -9.9999999999999978E-002     4.1960969567298889E-002
  -9.9499999999999977E-002     4.3235871940851212E-002
  -9.8999999999999977E-002     4.4541876763105392E-002
  -9.8499999999999976E-002     4.5879438519477844E-002
  -9.7999999999999976E-002     4.7249034047126770E-002
  -9.7499999999999976E-002     4.8651110380887985E-002
  -9.6999999999999975E-002     5.0086103379726410E-002
  -9.6499999999999975E-002     5.1554460078477859E-002
  -9.5999999999999974E-002     5.3056601434946060E-002
  -9.5500000000000002E-002     5.4592940956354141E-002
  -9.5000000000000001E-002     5.6163873523473740E-002
  -9.4500000000000001E-002     5.7769723236560822E-002
  -9.4000000000000000E-002     5.9410914778709412E-002
  -9.3500000000000000E-002     6.1087861657142639E-002
  -9.2999999999999999E-002     6.2800914049148560E-002
  -9.2499999999999999E-002     6.4550451934337616E-002
  -9.1999999999999998E-002     6.6336870193481445E-002
  -9.1499999999999998E-002     6.8160548806190491E-002
  -9.0999999999999998E-002     7.0021808147430420E-002
  -9.0499999999999997E-002     7.1920923888683319E-002
  -8.9999999999999997E-002     7.3858074843883514E-002
  -8.9499999999999996E-002     7.5833499431610107E-002
  -8.8999999999999996E-002     7.7847480773925781E-002
  -8.8499999999999995E-002     7.9900264739990234E-002
  -8.7999999999999995E-002     8.1992007791996002E-002
  -8.7499999999999994E-002     8.4122881293296814E-002
  -8.6999999999999994E-002     8.6293026804924011E-002
  -8.6499999999999994E-002     8.8502541184425354E-002
  -8.5999999999999993E-002     9.0751580893993378E-002
  -8.5499999999999993E-002     9.3040242791175842E-002
  -8.4999999999999992E-002     9.5368675887584686E-002
  -8.4499999999999992E-002     9.7736932337284088E-002
  -8.3999999999999991E-002    0.10014499723911285     
  -8.3499999999999991E-002    0.10259282588958740     
  -8.2999999999999990E-002    0.10508031398057938     
  -8.2499999999999990E-002    0.10760733485221863     
  -8.1999999999999990E-002    0.11017366498708725     
  -8.1499999999999989E-002    0.11277908086776733     
  -8.0999999999999989E-002    0.11542339622974396     
  -8.0499999999999988E-002    0.11810643225908279     
  -7.9999999999999988E-002    0.12082789093255997     
  -7.9499999999999987E-002    0.12358742207288742     
  -7.8999999999999987E-002    0.12638469040393829     
  -7.8499999999999986E-002    0.12921936810016632     
  -7.7999999999999986E-002    0.13209110498428345     
  -7.7499999999999986E-002    0.13499948382377625     
  -7.6999999999999985E-002    0.13794393837451935     
  -7.6499999999999985E-002    0.14092375338077545     
  -7.5999999999999984E-002    0.14393819868564606     
  -7.5499999999999984E-002    0.14698661863803864     
  -7.4999999999999983E-002    0.15006834268569946     
  -7.4499999999999983E-002    0.15318258106708527     
  -7.3999999999999982E-002    0.15632842481136322     
  -7.3499999999999982E-002    0.15950492024421692     
  -7.2999999999999982E-002    0.16271111369132996     
  -7.2499999999999981E-002    0.16594606637954712     
  -7.1999999999999981E-002    0.16920861601829529     
  -7.1499999999999980E-002    0.17249746620655060     
  -7.0999999999999980E-002    0.17581160366535187     
  -7.0499999999999979E-002    0.17914989590644836     
  -6.9999999999999979E-002    0.18251106142997742     
  -6.9499999999999978E-002    0.18589398264884949     
  -6.8999999999999978E-002    0.18929740786552429     
  -6.8499999999999978E-002    0.19271983206272125     
  -6.7999999999999977E-002    0.19615972042083740     
  -6.7499999999999977E-002    0.19961529970169067     
  -6.6999999999999976E-002    0.20308466255664825     
  -6.6499999999999976E-002    0.20656578242778778     
  -6.5999999999999975E-002    0.21005657315254211     
  -6.5499999999999975E-002    0.21355509757995605     
  -6.4999999999999974E-002    0.21705946326255798     
  -6.4499999999999974E-002    0.22056779265403748     
  -6.4000000000000001E-002    0.22407805919647217     
  -6.3500000000000001E-002    0.22758822143077850     
  -6.3000000000000000E-002    0.23109625279903412     
  -6.2500000000000000E-002    0.23460008203983307     
  -6.2000000000000000E-002    0.23809763789176941     
  -6.1499999999999999E-002    0.24158649146556854     
  -6.0999999999999999E-002    0.24506415426731110     
  -6.0499999999999998E-002    0.24852779507637024     
  -5.9999999999999998E-002    0.25197404623031616     
  -5.9499999999999997E-002    0.25539982318878174     
  -5.8999999999999997E-002    0.25880229473114014     
  -5.8499999999999996E-002    0.26217862963676453     
  -5.7999999999999996E-002    0.26552587747573853     
  -5.7499999999999996E-002    0.26884105801582336     
  -5.6999999999999995E-002    0.27212119102478027     
  -5.6499999999999995E-002    0.27536332607269287     
  -5.5999999999999994E-002    0.27856451272964478     
  -5.5499999999999994E-002    0.28172159194946289     
  -5.4999999999999993E-002    0.28483119606971741     
  -5.4499999999999993E-002    0.28789010643959045     
  -5.3999999999999992E-002    0.29089462757110596     
  -5.3499999999999992E-002    0.29384082555770874     
  -5.2999999999999992E-002    0.29672491550445557     
  -5.2499999999999991E-002    0.29954326152801514     
  -5.1999999999999991E-002    0.30229204893112183     
  -5.1499999999999990E-002    0.30496725440025330     
  -5.0999999999999990E-002    0.30756473541259766     
  -5.0499999999999989E-002    0.31008011102676392     
  -4.9999999999999989E-002    0.31251010298728943     
  -4.9499999999999988E-002    0.31485128402709961     
  -4.8999999999999988E-002    0.31709951162338257     
  -4.8499999999999988E-002    0.31925091147422791     
  -4.7999999999999987E-002    0.32130137085914612     
  -4.7499999999999987E-002    0.32324662804603577     
  -4.6999999999999986E-002    0.32508218288421631     
  -4.6499999999999986E-002    0.32680371403694153     
  -4.5999999999999985E-002    0.32840663194656372     
  -4.5499999999999985E-002    0.32988625764846802     
  -4.4999999999999984E-002    0.33123794198036194     
  -4.4499999999999984E-002    0.33245712518692017     
  -4.3999999999999984E-002    0.33353960514068604     
  -4.3499999999999983E-002    0.33448088169097900     
  -4.2999999999999983E-002    0.33527681231498718     
  -4.2499999999999982E-002    0.33592343330383301     
  -4.1999999999999982E-002    0.33641627430915833     
  -4.1499999999999981E-002    0.33675065636634827     
  -4.0999999999999981E-002    0.33692204952239990     
  -4.0499999999999980E-002    0.33692607283592224     
  -3.9999999999999980E-002    0.33675801753997803     
  -3.9499999999999980E-002    0.33641314506530762     
  -3.8999999999999979E-002    0.33588734269142151     
  -3.8499999999999979E-002    0.33517584204673767     
  -3.7999999999999978E-002    0.33427333831787109     
  -3.7499999999999978E-002    0.33317574858665466     
  -3.6999999999999977E-002    0.33187931776046753     
  -3.6499999999999977E-002    0.33038014173507690     
  -3.5999999999999976E-002    0.32867476344108582     
  -3.5499999999999976E-002    0.32675895094871521     
  -3.4999999999999976E-002    0.32462763786315918     
  -3.4499999999999975E-002    0.32227632403373718     
  -3.3999999999999975E-002    0.31970116496086121     
  -3.3499999999999974E-002    0.31689789891242981     
  -3.2999999999999974E-002    0.31386202573776245     
  -3.2499999999999973E-002    0.31058934330940247     
  -3.1999999999999973E-002    0.30707591772079468     
  -3.1500000000000000E-002    0.30331870913505554     
  -3.1000000000000000E-002    0.29931485652923584     
  -3.0499999999999999E-002    0.29506069421768188     
  -2.9999999999999999E-002    0.29055336117744446     
  -2.9499999999999998E-002    0.28579077124595642     
  -2.8999999999999998E-002    0.28077048063278198     
  -2.8499999999999998E-002    0.27548938989639282     
  -2.7999999999999997E-002    0.26994356513023376     
  -2.7499999999999997E-002    0.26413017511367798     
  -2.6999999999999996E-002    0.25804620981216431     
  -2.6499999999999996E-002    0.25168818235397339     
  -2.5999999999999995E-002    0.24505330622196198     
  -2.5499999999999995E-002    0.23813964426517487     
  -2.4999999999999994E-002    0.23094435036182404     
  -2.4499999999999994E-002    0.22346505522727966     
  -2.3999999999999994E-002    0.21570101380348206     
  -2.3499999999999993E-002    0.20765070617198944     
  -2.2999999999999993E-002    0.19931365549564362     
  -2.2499999999999992E-002    0.19069045782089233     
  -2.1999999999999992E-002    0.18178091943264008     
  -2.1499999999999991E-002    0.17258530855178833     
  -2.0999999999999991E-002    0.16310393810272217     
  -2.0499999999999990E-002    0.15333549678325653     
  -1.9999999999999990E-002    0.14327876269817352     
  -1.9499999999999990E-002    0.13293309509754181     
  -1.8999999999999989E-002    0.12229725718498230     
  -1.8499999999999989E-002    0.11137143522500992     
  -1.7999999999999988E-002    0.10015716403722763     
  -1.7499999999999988E-002     8.8655784726142883E-002
  -1.6999999999999987E-002     7.6868325471878052E-002
  -1.6499999999999987E-002     6.4795561134815216E-002
  -1.5999999999999986E-002     5.2441194653511047E-002
  -1.5499999999999986E-002     3.9808556437492371E-002
  -1.4999999999999986E-002     2.6899691671133041E-002
  -1.4499999999999985E-002     1.3717803172767162E-002
  -1.3999999999999985E-002     2.6615569368004799E-004
  -1.3499999999999984E-002    -1.3452500104904175E-002
  -1.2999999999999984E-002    -2.7435891330242157E-002
  -1.2499999999999983E-002    -4.1680656373500824E-002
  -1.1999999999999983E-002    -5.6184526532888412E-002
  -1.1499999999999982E-002    -7.0944756269454956E-002
  -1.0999999999999982E-002    -8.5956409573554993E-002
  -1.0499999999999982E-002   -0.10121362656354904     
  -9.9999999999999811E-003   -0.11670917272567749     
  -9.4999999999999807E-003   -0.13243730366230011     
  -8.9999999999999802E-003   -0.14839148521423340     
  -8.4999999999999798E-003   -0.16456452012062073     
  -7.9999999999999793E-003   -0.18095050752162933     
  -7.4999999999999789E-003   -0.19754445552825928     
  -6.9999999999999785E-003   -0.21434035897254944     
  -6.4999999999999780E-003   -0.23133175075054169     
  -5.9999999999999776E-003   -0.24851311743259430     
  -5.4999999999999771E-003   -0.26587757468223572     
  -4.9999999999999767E-003   -0.28341853618621826     
  -4.4999999999999762E-003   -0.30112805962562561     
  -3.9999999999999758E-003   -0.31899631023406982     
  -3.4999999999999754E-003   -0.33701336383819580     
  -2.9999999999999749E-003   -0.35516920685768127     
  -2.4999999999999745E-003   -0.37345355749130249     
  -1.9999999999999740E-003   -0.39185541868209839     
  -1.4999999999999736E-003   -0.41036555171012878     
  -9.9999999999997313E-004   -0.42897421121597290     
  -4.9999999999997269E-004   -0.44767126441001892     
   0.0000000000000000        -0.46644833683967590     
   5.0000000000000044E-004   -0.48529601097106934     
   1.0000000000000009E-003   -0.50420540571212769     
   1.5000000000000013E-003   -0.52316606044769287     
   2.0000000000000018E-003   -0.54216557741165161     
   2.5000000000000022E-003   -0.56119060516357422     
   3.0000000000000027E-003   -0.58022922277450562     
   3.5000000000000031E-003   -0.59926879405975342     
   4.0000000000000036E-003   -0.61829465627670288     
   4.5000000000000040E-003   -0.63729411363601685     
   5.0000000000000044E-003   -0.65625458955764771     
   5.5000000000000049E-003   -0.67516505718231201     
   6.0000000000000053E-003   -0.69401383399963379     
   6.5000000000000058E-003   -0.71278929710388184     
   7.0000000000000062E-003   -0.73148095607757568     
   7.5000000000000067E-003   -0.75007551908493042     
   8.0000000000000071E-003   -0.76855945587158203     
   8.5000000000000075E-003   -0.78691965341567993     
   9.0000000000000080E-003   -0.80514121055603027     
   9.5000000000000084E-003   -0.82320857048034668     
   1.0000000000000009E-002   -0.84110593795776367     
   1.0500000000000009E-002   -0.85881835222244263     
   1.1000000000000010E-002   -0.87633222341537476     
   1.1500000000000010E-002   -0.89363384246826172     
   1.2000000000000011E-002   -0.91070997714996338     
   1.2500000000000011E-002   -0.92754864692687988     
   1.3000000000000012E-002   -0.94413793087005615     
   1.3500000000000012E-002   -0.96046531200408936     
   1.4000000000000012E-002   -0.97651690244674683     
   1.4500000000000013E-002   -0.99227780103683472     
   1.5000000000000013E-002    -1.0077346563339233     
   1.5500000000000014E-002    -1.0228739976882935     
   1.6000000000000014E-002    -1.0376801490783691     
   1.6500000000000015E-002    -1.0521378517150879     
   1.7000000000000015E-002    -1.0662320852279663     
   1.7500000000000016E-002    -1.0799491405487061     
   1.8000000000000016E-002    -1.0932753086090088     
   1.8500000000000016E-002    -1.1061973571777344     
   1.9000000000000017E-002    -1.1187043190002441     
   1.9500000000000017E-002    -1.1307853460311890     
   2.0000000000000018E-002    -1.1424299478530884     
   2.0500000000000018E-002    -1.1536269187927246     
   2.1000000000000019E-002    -1.1643642187118530     
   2.1500000000000019E-002    -1.1746286153793335     
   2.2000000000000020E-002    -1.1844061613082886     
   2.2500000000000020E-002    -1.1936836242675781     
   2.3000000000000020E-002    -1.2024480104446411     
   2.3500000000000021E-002    -1.2106876373291016     
   2.4000000000000021E-002    -1.2183912992477417     
   2.4500000000000022E-002    -1.2255485057830811     
   2.5000000000000022E-002    -1.2321503162384033     
   2.5500000000000023E-002    -1.2381886243820190     
   2.6000000000000023E-002    -1.2436556816101074     
   2.6500000000000024E-002    -1.2485433816909790     
   2.7000000000000024E-002    -1.2528444528579712     
   2.7500000000000024E-002    -1.2565510272979736     
   2.8000000000000025E-002    -1.2596538066864014     
   2.8500000000000025E-002    -1.2621431350708008     
   2.9000000000000026E-002    -1.2640098333358765     
   2.9500000000000026E-002    -1.2652449607849121     
   3.0000000000000027E-002    -1.2658398151397705     
   3.0500000000000027E-002    -1.2657873630523682     
   3.1000000000000028E-002    -1.2650827169418335     
   3.1500000000000028E-002    -1.2637221813201904     
   3.2000000000000028E-002    -1.2617027759552002     