 -0.23999999999999999          0.0000000000000000     
 -0.23949999999999999          0.0000000000000000     
 -0.23899999999999999          0.0000000000000000     
 -0.23849999999999999          0.0000000000000000     
 -0.23799999999999999          3.4426038231489574E-020
 -0.23749999999999999          3.4640807120429306E-019
 -0.23699999999999999          1.8338554517063584E-018
 -0.23649999999999999          6.7978199833101642E-018
 -0.23599999999999999          1.9767413696339406E-017
 -0.23549999999999999          4.7834849899820022E-017
 -0.23499999999999999          9.9674007784030497E-017
 -0.23449999999999999          1.8244363933684521E-016
 -0.23399999999999999          2.9625198715712710E-016
 -0.23349999999999999          4.2680050387066516E-016
 -0.23299999999999998          5.3804918451283489E-016
 -0.23249999999999998          5.6787474118789725E-016
 -0.23199999999999998          4.3024693001629668E-016
 -0.23149999999999998          2.6984867990789278E-017
 -0.23099999999999998         -7.2954020341146604E-016
 -0.23049999999999998         -1.8841896002570756E-015
 -0.22999999999999998         -3.4021480042603410E-015
 -0.22949999999999998         -5.1352644031832854E-015
 -0.22899999999999998         -6.8015219095744046E-015
 -0.22849999999999998         -7.9874425379852609E-015
 -0.22799999999999998         -8.1807771637927250E-015
 -0.22749999999999998         -6.8361826321951602E-015
 -0.22699999999999998         -3.4704826199417094E-015
 -0.22649999999999998          2.2222421072347956E-015
 -0.22599999999999998          1.0250854913616501E-014
 -0.22549999999999998          2.0221079281999503E-014
 -0.22499999999999998          3.1262287240718396E-014
 -0.22449999999999998          4.2004675033414111E-014
 -0.22399999999999998          5.0620924135950497E-014
 -0.22349999999999998          5.4942002243624276E-014
 -0.22299999999999998          5.2652199297392518E-014
 -0.22249999999999998          4.1563044068674863E-014
 -0.22199999999999998          1.9959561413168709E-014
 -0.22150000000000000         -1.2996903672156890E-014
 -0.22100000000000000         -5.6838168649749105E-014
 -0.22050000000000000         -1.0937754210248997E-013
 -0.22000000000000000         -1.6638390140612116E-013
 -0.21950000000000000         -2.2142849287683540E-013
 -0.21900000000000000         -2.6600328516078150E-013
 -0.21850000000000000         -2.9000793367952206E-013
 -0.21800000000000000         -2.8267664571691119E-013
 -0.21750000000000000         -2.3396397983541247E-013
 -0.21700000000000000         -1.3632850480166131E-013
 -0.21650000000000000          1.3246079862543845E-014
 -0.21600000000000000          2.1125887580537963E-013
 -0.21550000000000000          4.4608276445014022E-013
 -0.21500000000000000          6.9714139850119790E-013
 -0.21450000000000000          9.3525803675581823E-013
 -0.21400000000000000          1.1244667420390180E-012
 -0.21350000000000000          1.2253984828161572E-012
 -0.21299999999999999          1.2001068137373984E-012
 -0.21249999999999999          1.0179142047931730E-012
 -0.21199999999999999          6.6158540839160331E-013
 -0.21149999999999999          1.3292148623097454E-013
 -0.21099999999999999         -5.4322636117714859E-013
 -0.21049999999999999         -1.3174631087045845E-012
 -0.20999999999999999         -2.1175843594725650E-012
 -0.20949999999999999         -2.8538490091767468E-012
 -0.20899999999999999         -3.4275904793800577E-012
 -0.20849999999999999         -3.7424121889584956E-012
 -0.20799999999999999         -3.7167115308654847E-012
 -0.20749999999999999         -3.2959118235842615E-012
 -0.20699999999999999         -2.4626433222711897E-012
 -0.20649999999999999         -1.2432435412047052E-012
 -0.20599999999999999          2.9065126183597804E-013
 -0.20549999999999999          2.0260211402613956E-012
 -0.20499999999999999          3.8177097149218557E-012
 -0.20449999999999999          5.5020457522054666E-012
 -0.20399999999999999          6.9132130362588445E-012
 -0.20349999999999999          7.9002923081873002E-012
 -0.20299999999999999          8.3427888429743992E-012
 -0.20249999999999999          8.1626884885258532E-012
 -0.20199999999999999          7.3316204637526682E-012
 -0.20149999999999998          5.8724954342764461E-012
 -0.20099999999999998          3.8558264543780567E-012
 -0.20049999999999998          1.3917630767927737E-012
 -0.19999999999999998         -1.3805562503010087E-012
 -0.19949999999999998         -4.3044607711967007E-012
 -0.19899999999999998         -7.2162456761650350E-012
 -0.19849999999999998         -9.9534045856111781E-012
 -0.19799999999999998         -1.2359996360610329E-011
 -0.19749999999999998         -1.4289388781017939E-011
 -0.19699999999999998         -1.5605368814137131E-011
 -0.19649999999999998         -1.6183147971310391E-011
 -0.19600000000000001         -1.5911944957352375E-011
 -0.19550000000000001         -1.4700577196539569E-011
 -0.19500000000000001         -1.2486802367449160E-011
 -0.19450000000000001         -9.2501899491607495E-012
 -0.19400000000000001         -5.0271711821150431E-012
 -0.19350000000000001          7.4043911510563339E-014
 -0.19300000000000000          5.8617919991524268E-012
 -0.19250000000000000          1.2055782365626222E-011
 -0.19200000000000000          1.8291336258778393E-011
 -0.19150000000000000          2.4135030020144407E-011
 -0.19100000000000000          2.9112232238155734E-011
 -0.19050000000000000          3.2745241884820544E-011
 -0.19000000000000000          3.4598997904636892E-011
 -0.18950000000000000          3.4329643364219211E-011
 -0.18900000000000000          3.1730287430568583E-011
 -0.18850000000000000          2.6767916528201790E-011
 -0.18800000000000000          1.9605908147359939E-011
 -0.18750000000000000          1.0607838749686393E-011
 -0.18700000000000000          3.2045796601697897E-013
 -0.18650000000000000         -1.0564081926834188E-011
 -0.18600000000000000         -2.1263973686515802E-011
 -0.18550000000000000         -3.0976482316704325E-011
 -0.18500000000000000         -3.8952666239854428E-011
 -0.18450000000000000         -4.4570509927334217E-011
 -0.18400000000000000         -4.7398200713860456E-011
 -0.18350000000000000         -4.7240883578146214E-011
 -0.18300000000000000         -4.4165491683535454E-011
 -0.18250000000000000         -3.8500718664351967E-011
 -0.18200000000000000         -3.0812189677570431E-011
 -0.18149999999999999         -2.1855297060061467E-011
 -0.18099999999999999         -1.2510548747477098E-011
 -0.18049999999999999         -3.7082062769865214E-012
 -0.17999999999999999          3.6504582047981269E-012
 -0.17949999999999999          8.7673418471205467E-012
 -0.17899999999999999          1.1010830142288452E-011
 -0.17849999999999999          9.9626898906903429E-012
 -0.17799999999999999          5.4458212373697673E-012
 -0.17749999999999999         -2.4682934177671183E-012
 -0.17699999999999999         -1.3470748099169597E-011
 -0.17649999999999999         -2.7042976781487960E-011
 -0.17599999999999999         -4.2494855937147546E-011
 -0.17549999999999999         -5.9010631537102092E-011
 -0.17499999999999999         -7.5696514183259666E-011
 -0.17449999999999999         -9.1626121688629283E-011
 -0.17399999999999999         -1.0588036353417895E-010
 -0.17349999999999999         -1.1758158551594931E-010
 -0.17299999999999999         -1.2592063425282642E-010
 -0.17249999999999999         -1.3017946373534088E-010
 -0.17199999999999999         -1.2974880309419628E-010
 -0.17149999999999999         -1.2414661203227117E-010
 -0.17099999999999999         -1.1303365393019203E-010
 -0.17049999999999998         -9.6232913726416167E-011
 -0.16999999999999998         -7.3753328941953150E-011
 -0.16949999999999998         -4.5812072749566936E-011
 -0.16899999999999998         -1.2855058193770211E-011
 -0.16849999999999998          2.4427076102682251E-011
 -0.16799999999999998          6.5085889912802986E-011
 -0.16749999999999998          1.0792235266600585E-010
 -0.16699999999999998          1.5151231317081317E-010
 -0.16649999999999998          1.9424044467756578E-010
 -0.16599999999999998          2.3436345441173561E-010
 -0.16549999999999998          2.7008474005181871E-010
 -0.16499999999999998          2.9964320218620941E-010
 -0.16449999999999998          3.2140531329482512E-010
 -0.16399999999999998          3.3396258490629986E-010
 -0.16349999999999998          3.3620866597553884E-010
 -0.16299999999999998          3.2740242488547030E-010
 -0.16249999999999998          3.0719389771355797E-010
 -0.16199999999999998          2.7560160768360404E-010
 -0.16149999999999998          2.3299421241651363E-010
 -0.16099999999999998          1.7999013891414090E-010
 -0.16049999999999998          1.1734849480633895E-010
 -0.15999999999999998          4.5851603630280533E-011
 -0.15949999999999998         -3.3835058237925876E-011
 -0.15899999999999997         -1.2128616450760221E-010
 -0.15849999999999997         -2.1641161402490744E-010
 -0.15799999999999997         -3.1951563259524611E-010
 -0.15749999999999997         -4.3130510779685507E-010
 -0.15699999999999997         -5.5283201569984466E-010
 -0.15649999999999997         -6.8539787719993262E-010
 -0.15599999999999997         -8.3043869983198543E-010
 -0.15549999999999997         -9.8938850921456493E-010
 -0.15499999999999997         -1.1634836265809271E-009
 -0.15449999999999997         -1.3536569693617880E-009
 -0.15399999999999997         -1.5604252010724420E-009
 -0.15349999999999997         -1.7838389185420949E-009
 -0.15299999999999997         -2.0235217841554193E-009
 -0.15249999999999997         -2.2787259768640879E-009
 -0.15200000000000000         -2.5484957569196197E-009
 -0.15150000000000000         -2.8318769832805281E-009
 -0.15100000000000000         -3.1280899519196410E-009
 -0.15049999999999999         -3.4367585220039592E-009
 -0.14999999999999999         -3.7581426900441952E-009
 -0.14949999999999999         -4.0932465693345650E-009
 -0.14899999999999999         -4.4439406772564433E-009
 -0.14849999999999999         -4.8129502977366731E-009
 -0.14799999999999999         -5.2037333904700390E-009
 -0.14749999999999999         -5.6204767231517660E-009
 -0.14699999999999999         -6.0677786097195656E-009
 -0.14649999999999999         -6.5504094107487775E-009
 -0.14599999999999999         -7.0730137793165632E-009
 -0.14549999999999999         -7.6399419611709449E-009
 -0.14499999999999999         -8.2548855472056458E-009
 -0.14449999999999999         -8.9207868104386479E-009
 -0.14399999999999999         -9.6397022305085700E-009
 -0.14349999999999999         -1.0412773939883735E-008
 -0.14299999999999999         -1.1240353261211617E-008
 -0.14249999999999999         -1.2121974394940897E-008
 -0.14199999999999999         -1.3056608069433868E-008
 -0.14149999999999999         -1.4043178834892602E-008
 -0.14099999999999999         -1.5080871890380785E-008
 -0.14049999999999999         -1.6169172194778736E-008
 -0.13999999999999999         -1.7308402979113916E-008
 -0.13949999999999999         -1.8500111164505481E-008
 -0.13899999999999998         -1.9747383838683817E-008
 -0.13849999999999998         -2.1055085598205779E-008
 -0.13799999999999998         -2.2429425185833329E-008
 -0.13749999999999998         -2.3878631018251300E-008
 -0.13699999999999998         -2.5412743715094799E-008
 -0.13649999999999998         -2.7042576611192727E-008
 -0.13599999999999998         -2.8780393898876300E-008
 -0.13550000000000001         -3.0639257457896356E-008
 -0.13500000000000001         -3.2632702047631431E-008
 -0.13450000000000001         -3.4774665737132733E-008
 -0.13400000000000001         -3.7078365679934122E-008
 -0.13350000000000001         -3.9556621918738948E-008
 -0.13300000000000001         -4.2221663265415671E-008
 -0.13250000000000001         -4.5084926895652697E-008
 -0.13200000000000001         -4.8157158348636475E-008
 -0.13150000000000001         -5.1448297126708337E-008
 -0.13100000000000001         -5.4967420211513861E-008
 -0.13050000000000000         -5.8723597679537275E-008
 -0.13000000000000000         -6.2725874120767451E-008
 -0.12950000000000000         -6.6983800405377966E-008
 -0.12900000000000000         -7.1507615747770665E-008
 -0.12850000000000000         -7.6308582366577997E-008
 -0.12800000000000000         -8.1399111183219558E-008
 -0.12750000000000000         -8.6793492098560767E-008
 -0.12700000000000000         -9.2509542478821457E-008
 -0.12650000000000000         -9.8568046488946110E-008
 -0.12600000000000000         -1.0499139348607855E-007
 -0.12550000000000000         -1.1180556255771171E-007
 -0.12499999999999999         -1.1904080887099361E-007
 -0.12449999999999999         -1.2673092484509535E-007
 -0.12399999999999999         -1.3491068616382150E-007
 -0.12349999999999998         -1.4361846969975387E-007
 -0.12299999999999998         -1.5289503834421868E-007
 -0.12249999999999998         -1.6278162326493046E-007
 -0.12199999999999998         -1.7332154403265636E-007
 -0.12149999999999998         -1.8455884512631998E-007
 -0.12099999999999998         -1.9653488713312983E-007
 -0.12049999999999998         -2.0929021536329114E-007
 -0.12000000000000000         -2.2286488270836937E-007
 -0.11950000000000000         -2.3729881189840376E-007
 -0.11899999999999999         -2.5263271795499981E-007
 -0.11849999999999999         -2.6890836817687334E-007
 -0.11799999999999999         -2.8616722276213156E-007
 -0.11749999999999999         -3.0445450668259573E-007
 -0.11699999999999999         -3.2381962211713397E-007
 -0.11649999999999999         -3.4431060070990524E-007
 -0.11599999999999999         -3.6599222826583509E-007
 -0.11549999999999999         -3.8893231479458139E-007
 -0.11499999999999999         -4.1319840468042554E-007
 -0.11449999999999999         -4.3887289815871046E-007
 -0.11399999999999999         -4.6605237425443652E-007
 -0.11349999999999999         -4.9483281003335586E-007
 -0.11299999999999999         -5.2531977014568131E-007
 -0.11249999999999999         -5.5762369702471373E-007
 -0.11199999999999999         -5.9186037709908268E-007
 -0.11149999999999999         -6.2815127230625940E-007
 -0.11099999999999999         -6.6662031461919792E-007
 -0.11049999999999999         -7.0740320859706525E-007
 -0.10999999999999999         -7.5063383075424045E-007
 -0.10949999999999999         -7.9644906381107736E-007
 -0.10899999999999999         -8.4498356162403240E-007
 -0.10849999999999999         -8.9639197175756276E-007
 -0.10799999999999998         -9.5082523377161357E-007
 -0.10749999999999998         -1.0084405600447544E-006
 -0.10699999999999998         -1.0694120966302793E-006
 -0.10649999999999998         -1.1339131134807813E-006
 -0.10599999999999998         -1.2021345970033258E-006
 -0.10549999999999998         -1.2742735867226393E-006
 -0.10499999999999998         -1.3505336234938436E-006
 -0.10449999999999998         -1.4311609755302265E-006
 -0.10399999999999998         -1.5163825703869734E-006
 -0.10349999999999998         -1.6064609545724564E-006
 -0.10299999999999998         -1.7016665029617428E-006
 -0.10249999999999998         -1.8022808397300168E-006
 -0.10199999999999998         -1.9086101191784014E-006
 -0.10149999999999998         -2.0209574789041919E-006
 -0.10099999999999998         -2.1396673654203656E-006
 -0.10049999999999998         -2.2650868641803599E-006
  -9.9999999999999978E-002    -2.3975815396849538E-006
  -9.9499999999999977E-002    -2.5375243694556839E-006
  -9.8999999999999977E-002    -2.6852816956431146E-006
  -9.8499999999999976E-002    -2.8412885190839204E-006
  -9.7999999999999976E-002    -3.0060030010973883E-006
  -9.7499999999999976E-002    -3.1798346910841936E-006
  -9.6999999999999975E-002    -3.3632629396069101E-006
  -9.6499999999999975E-002    -3.5568247425937215E-006
  -9.5999999999999974E-002    -3.7609739937673416E-006
  -9.5500000000000002E-002    -3.9762981050694412E-006
  -9.5000000000000001E-002    -4.2033583845635506E-006
  -9.4500000000000001E-002    -4.4427718528630563E-006
  -9.4000000000000000E-002    -4.6951839586785039E-006
  -9.3500000000000000E-002    -4.9612103446993615E-006
  -9.2999999999999999E-002    -5.2415599928160964E-006
  -9.2499999999999999E-002    -5.5370078398743521E-006
  -9.1999999999999998E-002    -5.8483640800949150E-006
  -9.1499999999999998E-002    -6.1764420333584484E-006
  -9.0999999999999998E-002    -6.5220760100361029E-006
  -9.0499999999999997E-002    -6.8861985639177731E-006
  -8.9999999999999997E-002    -7.2698299344429616E-006
  -8.9499999999999996E-002    -7.6739346612992700E-006
  -8.8999999999999996E-002    -8.0995120895514136E-006
  -8.8499999999999995E-002    -8.5477089545215008E-006
  -8.7999999999999995E-002    -9.0196155478633889E-006
  -8.7499999999999994E-002    -9.5163799207391608E-006
  -8.6999999999999994E-002    -1.0039234771307429E-005
  -8.6499999999999994E-002    -1.0589523523882956E-005
  -8.5999999999999993E-002    -1.1168536726451168E-005
  -8.5499999999999993E-002    -1.1777674289026306E-005
  -8.4999999999999992E-002    -1.2418344117961410E-005
  -8.4499999999999992E-002    -1.3092133617488235E-005
  -8.3999999999999991E-002    -1.3800691271019112E-005
  -8.3499999999999991E-002    -1.4545560118782340E-005
  -8.2999999999999990E-002    -1.5328527096542343E-005
  -8.2499999999999990E-002    -1.6151448161184462E-005
  -8.1999999999999990E-002    -1.7016174074897361E-005
  -8.1499999999999989E-002    -1.7924695613057525E-005
  -8.0999999999999989E-002    -1.8879089629902302E-005
  -8.0499999999999988E-002    -1.9881679439503352E-005
  -7.9999999999999988E-002    -2.0934899215975999E-005
  -7.9499999999999987E-002    -2.2041085887144579E-005
  -7.8999999999999987E-002    -2.3202712147917506E-005
  -7.8499999999999986E-002    -2.4422308581416290E-005
  -7.7999999999999986E-002    -2.5702765075221565E-005
  -7.7499999999999986E-002    -2.7046833508704376E-005
  -7.6999999999999985E-002    -2.8457581030856561E-005
  -7.6499999999999985E-002    -2.9938153444724765E-005
  -7.5999999999999984E-002    -3.1491646798927847E-005
  -7.5499999999999984E-002    -3.3121394217329350E-005
  -7.4999999999999983E-002    -3.4831071803723211E-005
  -7.4499999999999983E-002    -3.6624102670549207E-005
  -7.3999999999999982E-002    -3.8504115969641844E-005
  -7.3499999999999982E-002    -4.0475413857982587E-005
  -7.2999999999999982E-002    -4.2541944074865685E-005
  -7.2499999999999981E-002    -4.4708137850983103E-005
  -7.1999999999999981E-002    -4.6978289823588926E-005
  -7.1499999999999980E-002    -4.9356611350827675E-005
  -7.0999999999999980E-002    -5.1848628650679238E-005
  -7.0499999999999979E-002    -5.4459516188051939E-005
  -6.9999999999999979E-002    -5.7194205179124892E-005
  -6.9499999999999978E-002    -6.0057849707479601E-005
  -6.8999999999999978E-002    -6.3056339950863304E-005
  -6.8499999999999978E-002    -6.6195835125709999E-005
  -6.7999999999999977E-002    -6.9482898702251530E-005
  -6.7499999999999977E-002    -7.2923218627570467E-005
  -6.6999999999999976E-002    -7.6523305592925015E-005
  -6.6499999999999976E-002    -8.0290019069751155E-005
  -6.5999999999999975E-002    -8.4230951990197527E-005
  -6.5499999999999975E-002    -8.8353696899493489E-005
  -6.4999999999999974E-002    -9.2665541022100731E-005
  -6.4499999999999974E-002    -9.7175659396039145E-005
  -6.4000000000000001E-002    -1.0189182869276754E-004
  -6.3500000000000001E-002    -1.0682274684459286E-004
  -6.3000000000000000E-002    -1.1197805616739232E-004
  -6.2500000000000000E-002    -1.1736705314301790E-004
  -6.2000000000000000E-002    -1.2299894264845916E-004
  -6.1499999999999999E-002    -1.2888364238850404E-004
  -6.0999999999999999E-002    -1.3503164419835268E-004
  -6.0499999999999998E-002    -1.4145235167651579E-004
  -5.9999999999999998E-002    -1.4815777716450544E-004
  -5.9499999999999997E-002    -1.5516072539869055E-004
  -5.8999999999999997E-002    -1.6247349375971991E-004
  -5.8499999999999996E-002    -1.7010835851905698E-004
  -5.7999999999999996E-002    -1.7807805551169222E-004
  -5.7499999999999996E-002    -1.8639605681729113E-004
  -5.6999999999999995E-002    -1.9507426958556269E-004
  -5.6499999999999995E-002    -2.0412776567449729E-004
  -5.5999999999999994E-002    -2.1357201198299390E-004
  -5.5499999999999994E-002    -2.2342295079387433E-004
  -5.4999999999999993E-002    -2.3369823224404811E-004
  -5.4499999999999993E-002    -2.4441360781927036E-004
  -5.3999999999999992E-002    -2.5558604319767734E-004
  -5.3499999999999992E-002    -2.6723458126111355E-004
  -5.2999999999999992E-002    -2.7937783933772165E-004
  -5.2499999999999991E-002    -2.9203332213917322E-004
  -5.1999999999999991E-002    -3.0521979302882384E-004
  -5.1499999999999990E-002    -3.1895751703332634E-004
  -5.0999999999999990E-002    -3.3326563854530747E-004
  -5.0499999999999989E-002    -3.4816642136039602E-004
  -4.9999999999999989E-002    -3.6368359233044626E-004
  -4.9499999999999988E-002    -3.7984014895504740E-004
  -4.8999999999999988E-002    -3.9666062091816222E-004
  -4.8499999999999988E-002    -4.1417164652399890E-004
  -4.7999999999999987E-002    -4.3239799564600482E-004
  -4.7499999999999987E-002    -4.5136413047548230E-004
  -4.6999999999999986E-002    -4.7109446717930070E-004
  -4.6499999999999986E-002    -4.9161847177072262E-004
  -4.5999999999999985E-002    -5.1296726102840941E-004
  -4.5499999999999985E-002    -5.3517209340350324E-004
  -4.4999999999999984E-002    -5.5826096528996220E-004
  -4.4499999999999984E-002    -5.8226647985695009E-004
  -4.3999999999999984E-002    -6.0722605917611300E-004
  -4.3499999999999983E-002    -6.3317475530144034E-004
  -4.2999999999999983E-002    -6.6013969386345510E-004
  -4.2499999999999982E-002    -6.8815556175653016E-004
  -4.1999999999999982E-002    -7.1726288494591058E-004
  -4.1499999999999981E-002    -7.4749624321909553E-004
  -4.0999999999999981E-002    -7.7889755996947245E-004
  -4.0499999999999980E-002    -8.1150727677797613E-004
  -3.9999999999999980E-002    -8.4535980578935186E-004
  -3.9499999999999980E-002    -8.8050146360623208E-004
  -3.8999999999999979E-002    -9.1697987910738287E-004
  -3.8499999999999979E-002    -9.5483649124835767E-004
  -3.7999999999999978E-002    -9.9412840399226059E-004
  -3.7499999999999978E-002    -1.0348899037784295E-003
  -3.6999999999999977E-002    -1.0771662993147402E-003
  -3.6499999999999977E-002    -1.1210102080216680E-003
  -3.5999999999999976E-002    -1.1664796620832014E-003
  -3.5499999999999976E-002    -1.2136234017137361E-003
  -3.4999999999999976E-002    -1.2624848648877364E-003
  -3.4499999999999975E-002    -1.3131251639318187E-003
  -3.3999999999999975E-002    -1.3656074384087130E-003
  -3.3499999999999974E-002    -1.4199798271583440E-003
  -3.2999999999999974E-002    -1.4763116772145688E-003
  -3.2499999999999973E-002    -1.5346707843711025E-003
  -3.1999999999999973E-002    -1.5951180204409280E-003
  -3.1500000000000000E-002    -1.6577226347031914E-003
  -3.1000000000000000E-002    -1.7225478860944431E-003
  -3.0499999999999999E-002    -1.7896605150982663E-003
  -2.9999999999999999E-002    -1.8591325459438746E-003
  -2.9499999999999998E-002    -1.9310117581526854E-003
  -2.8999999999999998E-002    -2.0053746941582403E-003
  -2.8499999999999998E-002    -2.0823269160681725E-003
  -2.7999999999999997E-002    -2.1619342691624891E-003
  -2.7499999999999997E-002    -2.2442708418765837E-003
  -2.6999999999999996E-002    -2.3294109964508919E-003
  -2.6499999999999996E-002    -2.4174547339773367E-003
  -2.5999999999999995E-002    -2.5085004026389251E-003
  -2.5499999999999995E-002    -2.6025942983405733E-003
  -2.4999999999999994E-002    -2.6998145399352719E-003
  -2.4499999999999994E-002    -2.8002579249595391E-003
  -2.3999999999999994E-002    -2.9040181625494777E-003
  -2.3499999999999993E-002    -3.0112013712092611E-003
  -2.2999999999999993E-002    -3.1219084859130507E-003
  -2.2499999999999992E-002    -3.2362387715759063E-003
  -2.1999999999999992E-002    -3.3542832285685231E-003
  -2.1499999999999991E-002    -3.4761301580646265E-003
  -2.0999999999999991E-002    -3.6018753367189696E-003
  -2.0499999999999990E-002    -3.7316148236848524E-003
  -1.9999999999999990E-002    -3.8654998873914343E-003
  -1.9499999999999990E-002    -4.0036127173385793E-003
  -1.8999999999999989E-002    -4.1460472187478288E-003
  -1.8499999999999989E-002    -4.2928915371328504E-003
  -1.7999999999999988E-002    -4.4442806971006360E-003
  -1.7499999999999988E-002    -4.6003656043275467E-003
  -1.6999999999999987E-002    -4.7612480266940784E-003
  -1.6499999999999987E-002    -4.9269804767279914E-003
  -1.5999999999999986E-002    -5.0976756655595114E-003
  -1.5499999999999986E-002    -5.2735443743251106E-003
  -1.4999999999999986E-002    -5.4547187841649369E-003
  -1.4499999999999985E-002    -5.6412860196685521E-003
  -1.3999999999999985E-002    -5.8333912394806994E-003
  -1.3499999999999984E-002    -6.0312332929930573E-003
  -1.2999999999999984E-002    -6.2349344765939771E-003
  -1.2499999999999983E-002    -6.4446348870249390E-003
  -1.1999999999999983E-002    -6.6604844099855710E-003
  -1.1499999999999982E-002    -6.8825232764102504E-003
  -1.0999999999999982E-002    -7.1109318855612329E-003
  -1.0499999999999982E-002    -7.3458663427321373E-003
  -9.9999999999999811E-003    -7.5873920267781510E-003
  -9.4999999999999807E-003    -7.8357115119642891E-003
  -8.9999999999999802E-003    -8.0910057469521061E-003
  -8.4999999999999798E-003    -8.3533726070740832E-003
  -7.9999999999999793E-003    -8.6229041511055524E-003
  -7.4999999999999789E-003    -8.8998610766110077E-003
  -6.9999999999999785E-003    -9.1842259043370886E-003
  -6.4999999999999780E-003    -9.4762381192216201E-003
  -5.9999999999999776E-003    -9.7761538804763647E-003
  -5.4999999999999771E-003    -1.0084007334371349E-002
  -4.9999999999999767E-003    -1.0399855039686132E-002
  -4.4999999999999762E-003    -1.0724008259190679E-002
  -3.9999999999999758E-003    -1.1056657358370581E-002
  -3.4999999999999754E-003    -1.1397776962285104E-002
  -2.9999999999999749E-003    -1.1747618136556431E-002
  -2.4999999999999745E-003    -1.2106346563502342E-002
  -1.9999999999999740E-003    -1.2474123310597281E-002
  -1.4999999999999736E-003    -1.2851059554402515E-002
  -9.9999999999997313E-004    -1.3237436666598268E-002
  -4.9999999999997269E-004    -1.3633498797247588E-002
   0.0000000000000000         -1.4039408780351800E-002
   5.0000000000000044E-004    -1.4455174444641734E-002
   1.0000000000000009E-003    -1.4881003378130232E-002
   1.5000000000000013E-003    -1.5317031984440455E-002
   2.0000000000000018E-003    -1.5763404041420515E-002
   2.5000000000000022E-003    -1.6220432982055791E-002
   3.0000000000000027E-003    -1.6688292349544484E-002
   3.5000000000000031E-003    -1.7167093302896543E-002
   4.0000000000000036E-003    -1.7656982201763781E-002
   4.5000000000000040E-003    -1.8158158203099468E-002
   5.0000000000000044E-003    -1.8670820705073976E-002
   5.5000000000000049E-003    -1.9195039560495696E-002
   6.0000000000000053E-003    -1.9730929055735071E-002
   6.5000000000000058E-003    -2.0278636916482844E-002
   7.0000000000000062E-003    -2.0838228359569493E-002
   7.5000000000000067E-003    -2.1409929690863715E-002
   8.0000000000000071E-003    -2.1994028214328304E-002
   8.5000000000000075E-003    -2.2590473334446567E-002
   9.0000000000000080E-003    -2.3199340343936545E-002
   9.5000000000000084E-003    -2.3820794209195452E-002
   1.0000000000000009E-002    -2.4455150447475704E-002
   1.0500000000000009E-002    -2.5102455538877827E-002
   1.1000000000000010E-002    -2.5762737592205001E-002
   1.1500000000000010E-002    -2.6436284422751796E-002
   1.2000000000000011E-002    -2.7122915524148694E-002
   1.2500000000000011E-002    -2.7822471074011687E-002
   1.3000000000000012E-002    -2.8535201061636914E-002
   1.3500000000000012E-002    -2.9261425844668620E-002
   1.4000000000000012E-002    -3.0000830584564986E-002
   1.4500000000000013E-002    -3.0753270163258004E-002
   1.5000000000000013E-002    -3.1519629872898594E-002
   1.5500000000000014E-002    -3.2300161444618572E-002
   1.6000000000000014E-002    -3.3094718379481067E-002
   1.6500000000000015E-002    -3.3903133935798996E-002
   1.7000000000000015E-002    -3.4725546441053551E-002
   1.7500000000000016E-002    -3.5562391040118282E-002
   1.8000000000000016E-002    -3.6413610859310080E-002
   1.8500000000000016E-002    -3.7279377225902854E-002
   1.9000000000000017E-002    -3.8159666337599291E-002
   1.9500000000000017E-002    -3.9054803413316200E-002
   2.0000000000000018E-002    -3.9964753210272375E-002
   2.0500000000000018E-002    -4.0888825566839038E-002
   2.1000000000000019E-002    -4.1827108648844036E-002
   2.1500000000000019E-002    -4.2779842009343039E-002
   2.2000000000000020E-002    -4.3747170781432060E-002
   2.2500000000000020E-002    -4.4728728789113714E-002
   2.3000000000000020E-002    -4.5724362188703099E-002
   2.3500000000000021E-002    -4.6734163194269041E-002
   2.4000000000000021E-002    -4.7757572646149576E-002
   2.4500000000000022E-002    -4.8795182072212506E-002
   2.5000000000000022E-002    -4.9846810072485287E-002
   2.5500000000000023E-002    -5.0911686931590650E-002
   2.6000000000000023E-002    -5.1990586558533614E-002
   2.6500000000000024E-002    -5.3083038216964640E-002
   2.7000000000000024E-002    -5.4189151436230432E-002
   2.7500000000000024E-002    -5.5309008137357091E-002
   2.8000000000000025E-002    -5.6441822444923823E-002
   2.8500000000000025E-002    -5.7588043694088625E-002
   2.9000000000000026E-002    -5.8746866375096657E-002
   2.9500000000000026E-002    -5.9917536295303914E-002
   3.0000000000000027E-002    -6.1100307689403277E-002
   3.0500000000000027E-002    -6.2295256461246645E-002
   3.1000000000000028E-002    -6.3502410802446091E-002
   3.1500000000000028E-002    -6.4721365136685444E-002
   3.2000000000000028E-002    -6.5951703783570820E-002