 -0.23999999999999999          0.0000000000000000     
 -0.23949999999999999          0.0000000000000000     
 -0.23899999999999999          0.0000000000000000     
 -0.23849999999999999          0.0000000000000000     
 -0.23799999999999999          0.0000000000000000     
 -0.23749999999999999          0.0000000000000000     
 -0.23699999999999999          0.0000000000000000     
 -0.23649999999999999          0.0000000000000000     
 -0.23599999999999999          0.0000000000000000     
 -0.23549999999999999         -5.5934510468659433E-038
 -0.23499999999999999         -1.0954401270054714E-036
 -0.23449999999999999         -1.1027000757033305E-035
 -0.23399999999999999         -7.6731239305934427E-035
 -0.23349999999999999         -4.1325946145026195E-034
 -0.23299999999999998         -1.8343327841970511E-033
 -0.23249999999999998         -6.9801317198466922E-033
 -0.23199999999999998         -2.3385909062931935E-032
 -0.23149999999999998         -7.0309437371375590E-032
 -0.23099999999999998         -1.9238130433649671E-031
 -0.23049999999999998         -4.8422379513425300E-031
 -0.22999999999999998         -1.1304049480270026E-030
 -0.22949999999999998         -2.4630477005801759E-030
 -0.22899999999999998         -5.0331560813114713E-030
 -0.22849999999999998         -9.6790666743626440E-030
 -0.22799999999999998         -1.7554895152150824E-029
 -0.22749999999999998         -3.0053909098545573E-029
 -0.22699999999999998         -4.8530439143508061E-029
 -0.22649999999999998         -7.3699210457054678E-029
 -0.22599999999999998         -1.0458787172002606E-028
 -0.22549999999999998         -1.3695958644138534E-028
 -0.22499999999999998         -1.6123054776442522E-028
 -0.22449999999999998         -1.6010379402201631E-028
 -0.22399999999999998         -1.0642903919183169E-028
 -0.22349999999999998          3.7836599450848496E-029
 -0.22299999999999998          3.2031013016578263E-028
 -0.22249999999999998          7.9294944121219938E-028
 -0.22199999999999998          1.5012741798592719E-027
 -0.22150000000000000          2.4667316535226404E-027
 -0.22100000000000000          3.6618245420402812E-027
 -0.22050000000000000          4.9791872505389252E-027
 -0.22000000000000000          6.1982118307758615E-027
 -0.21950000000000000          6.9556725199001135E-027
 -0.21900000000000000          6.7300334055759232E-027
 -0.21850000000000000          4.8518303500827450E-027
 -0.21800000000000000          5.5394688041174753E-028
 -0.21750000000000000         -6.9251972083491156E-027
 -0.21700000000000000         -1.8176746587186390E-026
 -0.21650000000000000         -3.3394394031438932E-026
 -0.21600000000000000         -5.2097683276911790E-026
 -0.21550000000000000         -7.2834987251582326E-026
 -0.21500000000000000         -9.2914821464342843E-026
 -0.21450000000000000         -1.0823321957739683E-025
 -0.21400000000000000         -1.1327972546667014E-025
 -0.21350000000000000         -1.0141002271652018E-025
 -0.21299999999999999         -6.5464325048074039E-026
 -0.21249999999999999          1.2163708598574356E-027
 -0.21199999999999999          1.0337580022075512E-025
 -0.21149999999999999          2.4209963034662480E-025
 -0.21099999999999999          4.1290593542432505E-025
 -0.21049999999999999          6.0392923723577212E-025
 -0.20999999999999999          7.9455318443508886E-025
 -0.20949999999999999          9.5491627995469465E-025
 -0.20899999999999999          1.0467368574127384E-024
 -0.20849999999999999          1.0258609783843741E-024
 -0.20799999999999999          8.4680114440781000E-025
 -0.20749999999999999          4.6930220548961880E-025
 -0.20699999999999999         -1.3334990459602877E-025
 -0.20649999999999999         -9.6496369927694053E-025
 -0.20599999999999999         -1.9971343554327824E-024
 -0.20549999999999999         -3.1615034544003666E-024
 -0.20499999999999999         -4.3453967526926300E-024
 -0.20449999999999999         -5.3927267329570717E-024
 -0.20399999999999999         -6.1118791368434984E-024
 -0.20349999999999999         -6.2917707226197855E-024
 -0.20299999999999999         -5.7263377209551180E-024
 -0.20249999999999999         -4.2464659732356808E-024
 -0.20199999999999999         -1.7568617245690428E-024
 -0.20149999999999998          1.7262918365936231E-024
 -0.20099999999999998          6.0425197684846800E-024
 -0.20049999999999998          1.0865797878274200E-023
 -0.19999999999999998          1.5701908028967463E-023
 -0.19949999999999998          1.9910760651681817E-023
 -0.19899999999999998          2.2758199374914593E-023
 -0.19849999999999998          2.3498446772117955E-023
 -0.19799999999999998          2.1483972792149374E-023
 -0.19749999999999998          1.6294184316916437E-023
 -0.19699999999999998          7.8685108023749481E-024
 -0.19649999999999998         -3.3756466800157994E-024
 -0.19600000000000001         -1.6463529505950521E-023
 -0.19550000000000001         -2.9847061475151366E-023
 -0.19500000000000001         -4.1475100405448247E-023
 -0.19450000000000001         -4.8966546399254295E-023
 -0.19400000000000001         -4.9892278954883043E-023
 -0.19350000000000001         -4.2157224743805520E-023
 -0.19300000000000000         -2.4455703621864631E-023
 -0.19250000000000000          3.2461270221798939E-024
 -0.19200000000000000          3.9265820734452808E-023
 -0.19150000000000000          7.9877648000754954E-023
 -0.19100000000000000          1.1919018724773791E-022
 -0.19050000000000000          1.4931316896886205E-022
 -0.19000000000000000          1.6088276595714911E-022
 -0.18950000000000000          1.4398388369147895E-022
 -0.18900000000000000          8.9466447630459168E-023
 -0.18850000000000000         -9.4058248471203533E-024
 -0.18800000000000000         -1.5509749102549937E-022
 -0.18750000000000000         -3.4392310098349478E-022
 -0.18700000000000000         -5.6439623407086490E-022
 -0.18650000000000000         -7.9609576350596784E-022
 -0.18600000000000000         -1.0093560276392903E-021
 -0.18550000000000000         -1.1660697942978709E-021
 -0.18500000000000000         -1.2218342576679939E-021
 -0.18450000000000000         -1.1295710636557017E-021
 -0.18400000000000000         -8.4460393288168217E-022
 -0.18350000000000000         -3.3099599164496381E-022
 -0.18300000000000000          4.3124496850210635E-022
 -0.18250000000000000          1.4386998905884807E-021
 -0.18200000000000000          2.6575998058305774E-021
 -0.18149999999999999          4.0183464125577404E-021
 -0.18099999999999999          5.4124978418869221E-021
 -0.18049999999999999          6.6932044814869052E-021
 -0.17999999999999999          7.6799480752850671E-021
 -0.17949999999999999          8.1681711744514264E-021
 -0.17899999999999999          7.9440333523092569E-021
 -0.17849999999999999          6.8040252116808393E-021
 -0.17799999999999999          4.5786560119525185E-021
 -0.17749999999999999          1.1587734400693331E-021
 -0.17699999999999999         -3.4773943829646967E-021
 -0.17649999999999999         -9.2389938577823040E-021
 -0.17599999999999999         -1.5901848130505957E-020
 -0.17549999999999999         -2.3095326886648992E-020
 -0.17499999999999999         -3.0299588448233990E-020
 -0.17449999999999999         -3.6855704425149328E-020
 -0.17399999999999999         -4.1990501773310169E-020
 -0.17349999999999999         -4.4856852856103651E-020
 -0.17299999999999999         -4.4589294706295646E-020
 -0.17249999999999999         -4.0373003276227336E-020
 -0.17199999999999999         -3.1523281510783850E-020
 -0.17149999999999999         -1.7570907028793016E-020
 -0.17099999999999999          1.6523692030040258E-021
 -0.17049999999999998          2.5934722725373861E-020
 -0.16999999999999998          5.4618806104818315E-020
 -0.16949999999999998          8.6557166929067336E-020
 -0.16899999999999998          1.2009501382181447E-019
 -0.16849999999999998          1.5308646895399160E-019
 -0.16799999999999998          1.8294776062236665E-019
 -0.16749999999999998          2.0674977674795814E-019
 -0.16699999999999998          2.2134999774517243E-019
 -0.16649999999999998          2.2356001520178142E-019
 -0.16599999999999998          2.1034454263467113E-019
 -0.16549999999999998          1.7904329677835105E-019
 -0.16499999999999998          1.2760690609584101E-019
 -0.16449999999999998          5.4835145112465688E-020
 -0.16399999999999998         -3.9394313424947444E-020
 -0.16349999999999998         -1.5391886577489902E-019
 -0.16299999999999998         -2.8611817326327687E-019
 -0.16249999999999998         -4.3178722677335878E-019
 -0.16199999999999998         -5.8506512087586249E-019
 -0.16149999999999998         -7.3842994953142936E-019
 -0.16099999999999998         -8.8276771839443380E-019
 -0.16049999999999998         -1.0075222775862183E-018
 -0.15999999999999998         -1.1009339583116552E-018
 -0.15949999999999998         -1.1503715984711176E-018
 -0.15899999999999997         -1.1427654358613749E-018
 -0.15849999999999997         -1.0651471618748810E-018
 -0.15799999999999997         -9.0529678216265698E-019
 -0.15749999999999997         -6.5250527652574678E-019
 -0.15699999999999997         -2.9844971157873209E-019
 -0.15649999999999997          1.6182785240355185E-019
 -0.15599999999999997          7.2884796770726701E-019
 -0.15549999999999997          1.3975569758653310E-018
 -0.15499999999999997          2.1561632155146474E-018
 -0.15449999999999997          2.9850025011319355E-018
 -0.15399999999999997          3.8555125051881256E-018
 -0.15349999999999997          4.7294089789984695E-018
 -0.15299999999999997          5.5581775903992870E-018
 -0.15249999999999997          6.2830190722018298E-018
 -0.15200000000000000          6.8353983518820726E-018
 -0.15150000000000000          7.1383277070200244E-018
 -0.15100000000000000          7.1085436817563181E-018
 -0.15049999999999999          6.6597059327969690E-018
 -0.14999999999999999          5.7066813370918195E-018
 -0.14949999999999999          4.1709716421170881E-018
 -0.14899999999999999          1.9872394153684534E-018
 -0.14849999999999999         -8.8919718947340679E-019
 -0.14799999999999999         -4.4741184773390038E-018
 -0.14749999999999999         -8.7457455173350271E-018
 -0.14699999999999999         -1.3636135170529656E-017
 -0.14649999999999999         -1.9023195882967897E-017
 -0.14599999999999999         -2.4723990483882602E-017
 -0.14549999999999999         -3.0490115458587827E-017
 -0.14499999999999999         -3.6005890768102245E-017
 -0.14449999999999999         -4.0890289623282637E-017
 -0.14399999999999999         -4.4703262525478157E-017
 -0.14349999999999999         -4.6957121684056862E-017
 -0.14299999999999999         -4.7133621178949938E-017
 -0.14249999999999999         -4.4706718872221711E-017
 -0.14199999999999999         -3.9171228294380249E-017
 -0.14149999999999999         -3.0076730935638680E-017
 -0.14099999999999999         -1.7066044248145370E-017
 -0.14049999999999999          8.3127650439247870E-020
 -0.13999999999999999          2.1415054161815925E-017
 -0.13949999999999999          4.6753453037590356E-017
 -0.13899999999999998          7.5662251295801382E-017
 -0.13849999999999998          1.0741240323461120E-016
 -0.13799999999999998          1.4095788874590425E-016
 -0.13749999999999998          1.7492382580766596E-016
 -0.13699999999999998          2.0761013033489217E-016
 -0.13649999999999998          2.3701301449281581E-016
 -0.13599999999999998          2.6086717759961849E-016
 -0.13550000000000001          2.7670925520254659E-016
 -0.13500000000000001          2.8196489241012651E-016
 -0.13450000000000001          2.7405726216862819E-016
 -0.13400000000000001          2.5053745496434565E-016
 -0.13350000000000001          2.0923226790654138E-016
 -0.13300000000000001          1.4840622492305117E-016
 -0.13250000000000001          6.6932351577335422E-017
 -0.13200000000000001         -3.5535655199490079E-017
 -0.13150000000000001         -1.5839717220471722E-016
 -0.13100000000000001         -2.9995408416039535E-016
 -0.13050000000000000         -4.5728411144276847E-016
 -0.13000000000000000         -6.2614959544454620E-016
 -0.12950000000000000         -8.0095087907038537E-016
 -0.12900000000000000         -9.7473285111062883E-016
 -0.12850000000000000         -1.1392557764677336E-015
 -0.12800000000000000         -1.2851340422001730E-015
 -0.12750000000000000         -1.4020507701174336E-015
 -0.12700000000000000         -1.4790496195514674E-015
 -0.12650000000000000         -1.5049042359402619E-015
 -0.12600000000000000         -1.4685621600562039E-015
 -0.12550000000000000         -1.3596548556917354E-015
 -0.12499999999999999         -1.1690647822660665E-015
 -0.12449999999999999         -8.8953529489808619E-016
 -0.12399999999999999         -5.1630291757936650E-016
 -0.12349999999999998         -4.7731021209641188E-017
 -0.12299999999999998          5.1407986912057144E-016
 -0.12249999999999998          1.1627357826059306E-015
 -0.12199999999999998          1.8870741472022608E-015
 -0.12149999999999998          2.6708072664201092E-015
 -0.12099999999999998          3.4923118418567827E-015
 -0.12049999999999998          4.3245995947436046E-015
 -0.12000000000000000          5.1354985684688385E-015
 -0.11950000000000000          5.8880653422930596E-015
 -0.11899999999999999          6.5412696876448841E-015
 -0.11849999999999999          7.0509248261643229E-015
 -0.11799999999999999          7.3709224311820456E-015
 -0.11749999999999999          7.4547326006283331E-015
 -0.11699999999999999          7.2571526179543799E-015
 -0.11649999999999999          6.7362996373580893E-015
 -0.11599999999999999          5.8557951649350108E-015
 -0.11549999999999999          4.5870748958974457E-015
 -0.11499999999999999          2.9117780625497583E-015
 -0.11449999999999999          8.2411628997267893E-016
 -0.11399999999999999         -1.6668633167712718E-015
 -0.11349999999999999         -4.5352300789471161E-015
 -0.11299999999999999         -7.7364364678699554E-015
 -0.11249999999999999         -1.1206043104205064E-014
 -0.11199999999999999         -1.4858979124417110E-014
 -0.11149999999999999         -1.8589475926964650E-014
 -0.11099999999999999         -2.2271794867138659E-014
 -0.11049999999999999         -2.5761775991021795E-014
 -0.10999999999999999         -2.8899322227568894E-014
 -0.10949999999999999         -3.1511896974654583E-014
 -0.10899999999999999         -3.3418904285867055E-014
 -0.10849999999999999         -3.4437112560301564E-014
 -0.10799999999999998         -3.4386884302777840E-014
 -0.10749999999999998         -3.3099229173750375E-014
 -0.10699999999999998         -3.0423456165253530E-014
 -0.10649999999999998         -2.6235221212251230E-014
 -0.10599999999999998         -2.0444806414608144E-014
 -0.10549999999999998         -1.3005261080547142E-014
 -0.10499999999999998         -3.9201755803805407E-015
 -0.10449999999999998          6.7492918390814607E-015
 -0.10399999999999998          1.8878472081176830E-014
 -0.10349999999999998          3.2274664187464695E-014
 -0.10299999999999998          4.6674342206938921E-014
 -0.10249999999999998          6.1742516721205593E-014
 -0.10199999999999998          7.7074292079769517E-014
 -0.10149999999999998          9.2199220352035694E-014
 -0.10099999999999998          1.0658818573951612E-013
 -0.10049999999999998          1.1966321372271406E-013
  -9.9999999999999978E-002     1.3081004665482703E-013
  -9.9499999999999977E-002     1.3939356646010084E-013
  -9.8999999999999977E-002     1.4477546232161578E-013
  -9.8499999999999976E-002     1.4633441722544117E-013
  -9.7999999999999976E-002     1.4348792352407572E-013
  -9.7499999999999976E-002     1.3571537577140985E-013
  -9.6999999999999975E-002     1.2258203591762806E-013
  -9.6499999999999975E-002     1.0376290719671519E-013
  -9.5999999999999974E-002     7.9065943994487070E-014
  -9.5500000000000002E-002     4.8453680375460081E-014
  -9.5000000000000001E-002     1.2062727056682214E-014
  -9.4500000000000001E-002    -2.9779885869064421E-014
  -9.4000000000000000E-002    -7.6544425680361430E-014
  -9.3500000000000000E-002    -1.2749064609855969E-013
  -9.2999999999999999E-002    -1.8166543443645114E-013
  -9.2499999999999999E-002    -2.3790636956570173E-013
  -9.1999999999999998E-002    -2.9485140988752947E-013
  -9.1499999999999998E-002    -3.5095561395801674E-013
  -9.0999999999999998E-002    -4.0451468654174008E-013
  -9.0499999999999997E-002    -4.5369507525132998E-013
  -8.9999999999999997E-002    -4.9657082132255315E-013
  -8.9499999999999996E-002    -5.3116690054667296E-013
  -8.8999999999999996E-002    -5.5550787717637955E-013
  -8.8499999999999995E-002    -5.6767103273150808E-013
  -8.7999999999999995E-002    -5.6584444775588493E-013
  -8.7499999999999994E-002    -5.4838607843451621E-013
  -8.6999999999999994E-002    -5.1388547033897291E-013
  -8.6499999999999994E-002    -4.6122460210183176E-013
  -8.5999999999999993E-002    -3.8963702124497064E-013
  -8.5499999999999993E-002    -2.9876338679813580E-013
  -8.4999999999999992E-002    -1.8870202613479058E-013
  -8.4499999999999992E-002    -6.0052138725449451E-014
  -8.3999999999999991E-002     8.6051053185839098E-014
  -8.3499999999999991E-002     2.4791186623184973E-013
  -8.2999999999999990E-002     4.2326107593442467E-013
  -8.2499999999999990E-002     6.0925638286176819E-013
  -8.1999999999999990E-002     8.0249508697921009E-013
  -8.1499999999999989E-002     9.9904427290477877E-013
  -8.0999999999999989E-002     1.1944834434899686E-012
  -8.0499999999999988E-002     1.3839639314495571E-012
  -7.9999999999999988E-002     1.5622835396614723E-012
  -7.9499999999999987E-002     1.7239737026800697E-012
  -7.8999999999999987E-002     1.8634038569176235E-012
  -7.8499999999999986E-002     1.9748918771811781E-012
  -7.7999999999999986E-002     2.0528317494807697E-012
  -7.7499999999999986E-002     2.0918233041572492E-012
  -7.6999999999999985E-002     2.0868116426039558E-012
  -7.6499999999999985E-002     2.0332278687867393E-012
  -7.5999999999999984E-002     1.9271302337026261E-012
  -7.5499999999999984E-002     1.7653424549453207E-012
  -7.4999999999999983E-002     1.5455873296892257E-012
  -7.4499999999999983E-002     1.2666092024153399E-012
  -7.3999999999999982E-002     9.2828675969753998E-013
  -7.3499999999999982E-002     5.3172954518547798E-013
  -7.2999999999999982E-002     7.9357845554916118E-014
  -7.2499999999999981E-002    -4.2503830681410124E-013
  -7.1999999999999981E-002    -9.7626069862924876E-013
  -7.1499999999999980E-002    -1.5676907847317959E-012
  -7.0999999999999980E-002    -2.1912990873330711E-012
  -7.0499999999999979E-002    -2.8376817431391454E-012
  -6.9999999999999979E-002    -3.4961303143442551E-012
  -6.9499999999999978E-002    -4.1547136350681995E-012
  -6.8999999999999978E-002    -4.8004057974462872E-012
  -6.8499999999999978E-002    -5.4192201099116897E-012
  -6.7999999999999977E-002    -5.9963868392281619E-012
  -6.7499999999999977E-002    -6.5165392390886133E-012
  -6.6999999999999976E-002    -6.9639333568967073E-012
  -6.6499999999999976E-002    -7.3226837183484607E-012
  -6.5999999999999975E-002    -7.5770175427368277E-012
  -6.5499999999999975E-002    -7.7115494597413259E-012
  -6.4999999999999974E-002    -7.7115627885281446E-012
  -6.4499999999999974E-002    -7.5633127017087164E-012
  -6.4000000000000001E-002    -7.2543323882972046E-012
  -6.3500000000000001E-002    -6.7737438343742682E-012
  -6.3000000000000000E-002    -6.1125764680823085E-012
  -6.2500000000000000E-002    -5.2640796777046029E-012
  -6.2000000000000000E-002    -4.2240347679905794E-012
  -6.1499999999999999E-002    -2.9910552706978693E-012
  -6.0999999999999999E-002    -1.5668750215186382E-012
  -6.0499999999999998E-002     4.3385868591771535E-014
  -5.9999999999999998E-002     1.8309704133958149E-012
  -5.9499999999999997E-002     3.7832821555805821E-012
  -5.8999999999999997E-002     5.8836935500241381E-012
  -5.8499999999999996E-002     8.1114228328376282E-012
  -5.7999999999999996E-002     1.0441442878541016E-011
  -5.7499999999999996E-002     1.2844452954785154E-011
  -5.6999999999999995E-002     1.5286915396477454E-011
  -5.6499999999999995E-002     1.7731157417928599E-011
  -5.5999999999999994E-002     2.0135553080198889E-011
  -5.5499999999999994E-002     2.2454790857466768E-011
  -5.4999999999999993E-002     2.4640213689415871E-011
  -5.4499999999999993E-002     2.6640272032950636E-011
  -5.3999999999999992E-002     2.8401037399627896E-011
  -5.3499999999999992E-002     2.9866851080076583E-011
  -5.2999999999999992E-002     3.0981033486123972E-011
  -5.2499999999999991E-002     3.1686702913938086E-011
  -5.1999999999999991E-002     3.1927672893383858E-011
  -5.1499999999999990E-002     3.1649450134614191E-011
  -5.0999999999999990E-002     3.0800268251054162E-011
  -5.0499999999999989E-002     2.9332232554558051E-011
  -4.9999999999999989E-002     2.7202466649539656E-011
  -4.9499999999999988E-002     2.4374333086412071E-011
  -4.8999999999999988E-002     2.0818664024672203E-011
  -4.8499999999999988E-002     1.6514967585811385E-011
  -4.7999999999999987E-002     1.1452636281415617E-011
  -4.7499999999999987E-002     5.6321113375669745E-012
  -4.6999999999999986E-002    -9.3403060308128388E-013
  -4.6499999999999986E-002    -8.2200577196470545E-012
  -4.5999999999999985E-002    -1.6186227180608836E-011
  -4.5499999999999985E-002    -2.4777991450851563E-011
  -4.4999999999999984E-002    -3.3925442756252407E-011
  -4.4499999999999984E-002    -4.3542937615929277E-011
  -4.3999999999999984E-002    -5.3528871505798245E-011
  -4.3499999999999983E-002    -6.3765730171309396E-011
  -4.2999999999999983E-002    -7.4120441648331538E-011
  -4.2499999999999982E-002    -8.4444887675745044E-011
  -4.1999999999999982E-002    -9.4576792653306480E-011
  -4.1499999999999981E-002    -1.0434088768066979E-010
  -4.0999999999999981E-002    -1.1355033814127047E-010
  -4.0499999999999980E-002    -1.2200848259114565E-010
  -3.9999999999999980E-002    -1.2951095651640096E-010
  -3.9499999999999980E-002    -1.3584800142095759E-010
  -3.8999999999999979E-002    -1.4080717320040324E-010
  -3.8499999999999979E-002    -1.4417618843789916E-010
  -3.7999999999999978E-002    -1.4574619958228301E-010
  -3.7499999999999978E-002    -1.4531511264484472E-010
  -3.6999999999999977E-002    -1.4269122332456953E-010
  -3.6499999999999977E-002    -1.3769702354072253E-010
  -3.5999999999999976E-002    -1.3017300737166550E-010
  -3.5499999999999976E-002    -1.1998167244258554E-010
  -3.4999999999999976E-002    -1.0701152023936722E-010
  -3.4499999999999975E-002    -9.1181060664093534E-011
  -3.3999999999999975E-002    -7.2442554699443788E-011
  -3.3499999999999974E-002    -5.0785945676537030E-011
  -3.2999999999999974E-002    -2.6242374185336943E-011
  -3.2499999999999973E-002     1.1125231106193794E-012
  -3.1999999999999973E-002     3.1155611194182463E-011
  -3.1500000000000000E-002     6.3713574806176365E-011
  -3.1000000000000000E-002     9.8560656657813506E-011
  -3.0499999999999999E-002     1.3541708705276478E-010
  -2.9999999999999999E-002     1.7394763362311523E-010
  -2.9499999999999998E-002     2.1376121285813867E-010
  -2.8999999999999998E-002     2.5441071652395034E-010
  -2.8499999999999998E-002     2.9539368306208718E-010
  -2.7999999999999997E-002     3.3615381679154464E-010
  -2.7499999999999997E-002     3.7608306543951178E-010
  -2.6999999999999996E-002     4.1452439751956895E-010
  -2.6499999999999996E-002     4.5077571961067827E-010
  -2.5999999999999995E-002     4.8409402892558409E-010
  -2.5499999999999995E-002     5.1370089543864535E-010
  -2.4999999999999994E-002     5.3878854429240457E-010
  -2.4499999999999994E-002     5.5852687386498451E-010
  -2.3999999999999994E-002     5.7207103390730333E-010
  -2.3499999999999993E-002     5.7856977034226170E-010
  -2.2999999999999993E-002     5.7717473052407182E-010
  -2.2499999999999992E-002     5.6705073754570674E-010
  -2.1999999999999992E-002     5.4738594846034687E-010
  -2.1499999999999991E-002     5.1740297252609346E-010
  -2.0999999999999991E-002     4.7637106366947788E-010
  -2.0499999999999990E-002     4.2361794834303853E-010
  -1.9999999999999990E-002     3.5854237053925672E-010
  -1.9499999999999990E-002     2.8062731487703942E-010
  -1.8999999999999989E-002     1.8945320721373706E-010
  -1.8499999999999989E-002     8.4710602061643861E-011
  -1.7999999999999988E-002    -3.3786800256964027E-011
  -1.7499999999999988E-002    -1.6608808830573534E-010
  -1.6999999999999987E-002    -3.1209291778201288E-010
  -1.6499999999999987E-002    -4.7153930067441813E-010
  -1.5999999999999986E-002    -6.4399106158714446E-010
  -1.5499999999999986E-002    -8.2882666707674472E-010
  -1.4999999999999986E-002    -1.0252286427348679E-009
  -1.4499999999999985E-002    -1.2321743877578097E-009
  -1.3999999999999985E-002    -1.4484265968764596E-009
  -1.3499999999999984E-002    -1.6725258346572353E-009
  -1.2999999999999984E-002    -1.9027844867205315E-009
  -1.2499999999999983E-002    -2.1372811520271441E-009
  -1.1999999999999983E-002    -2.3738572708538737E-009
  -1.1499999999999982E-002    -2.6101142528242088E-009
  -1.0999999999999982E-002    -2.8434133508234149E-009
  -1.0499999999999982E-002    -3.0708751188988979E-009
  -9.9999999999999811E-003    -3.2893822370819989E-009
  -9.4999999999999807E-003    -3.4955841916725181E-009
  -8.9999999999999802E-003    -3.6858996414212579E-009
  -8.4999999999999798E-003    -3.8565278342143502E-009
  -7.9999999999999793E-003    -4.0034489784132334E-009
  -7.4999999999999789E-003    -4.1224407165374451E-009
  -6.9999999999999785E-003    -4.2090833458771241E-009
  -6.4999999999999780E-003    -4.2587728723109072E-009
  -5.9999999999999776E-003    -4.2667320698046039E-009
  -5.4999999999999771E-003    -4.2280225453267013E-009
  -4.9999999999999767E-003    -4.1375587770088875E-009
  -4.4999999999999762E-003    -3.9901198970985762E-009
  -3.9999999999999758E-003    -3.7803624921651797E-009
  -3.4999999999999754E-003    -3.5028285040853217E-009
  -2.9999999999999749E-003    -3.1519673105517858E-009
  -2.4999999999999745E-003    -2.7221388997563597E-009
  -1.9999999999999740E-003    -2.2076227717509495E-009
  -1.4999999999999736E-003    -1.6026284182731611E-009
  -9.9999999999997313E-004    -9.0129775007667870E-010
  -4.9999999999997269E-004    -9.7717102141584932E-011
   0.0000000000000000          8.1408756622117277E-010
   5.0000000000000044E-004     1.8401479009032095E-009
   1.0000000000000009E-003     2.9865596056135065E-009
   1.5000000000000013E-003     4.2594817769278218E-009
   2.0000000000000018E-003     5.6651678508634801E-009
   2.5000000000000022E-003     7.2099624731304202E-009
   3.0000000000000027E-003     8.9003100269775459E-009
   3.5000000000000031E-003     1.0742794075424260E-008
   4.0000000000000036E-003     1.2744173490917357E-008
   4.5000000000000040E-003     1.4911377596510636E-008
   5.0000000000000044E-003     1.7251577554037715E-008
   5.5000000000000049E-003     1.9772226395279399E-008
   6.0000000000000053E-003     2.2481068329619725E-008
   6.5000000000000058E-003     2.5386211074837344E-008
   7.0000000000000062E-003     2.8496208105375007E-008
   7.5000000000000067E-003     3.1820078488673889E-008
   8.0000000000000071E-003     3.5367423911174154E-008
   8.5000000000000075E-003     3.9148432633773615E-008
   9.0000000000000080E-003     4.3174020134808172E-008
   9.5000000000000084E-003     4.7455867311882407E-008
   1.0000000000000009E-002     5.2006571169752234E-008
   1.0500000000000009E-002     5.6839652743320135E-008
   1.1000000000000010E-002     6.1969776310490409E-008
   1.1500000000000010E-002     6.7412735435195934E-008
   1.2000000000000011E-002     7.3185598797605797E-008
   1.2500000000000011E-002     7.9306866367287793E-008
   1.3000000000000012E-002     8.5796548478893038E-008
   1.3500000000000012E-002     9.2676340863456021E-008
   1.4000000000000012E-002     9.9969761432266755E-008
   1.4500000000000013E-002     1.0770220213507167E-007
   1.5000000000000013E-002     1.1590115169239511E-007
   1.5500000000000014E-002     1.2459635867466734E-007
   1.6000000000000014E-002     1.3381995445885263E-007
   1.6500000000000015E-002     1.4360660763856580E-007
   1.7000000000000015E-002     1.5399369904253179E-007
   1.7500000000000016E-002     1.6502153166707241E-007
   1.8000000000000016E-002     1.7673342555365552E-007
   1.8500000000000016E-002     1.8917607629376168E-007
   1.9000000000000017E-002     2.0239948897851965E-007
   1.9500000000000017E-002     2.1645747920704755E-007
   2.0000000000000018E-002     2.3140760629299444E-007
   2.0500000000000018E-002     2.4731155700585325E-007
   2.1000000000000019E-002     2.6423533265855790E-007
   2.1500000000000019E-002     2.8224957743594248E-007
   2.2000000000000020E-002     3.0142947913486203E-007
   2.2500000000000020E-002     3.2185540536565682E-007
   2.3000000000000020E-002     3.4361320388815175E-007
   2.3500000000000021E-002     3.6679404383551782E-007
   2.4000000000000021E-002     3.9149504765110280E-007
   2.4500000000000022E-002     4.1781968778324988E-007
   2.5000000000000022E-002     4.4587789694044269E-007
   2.5500000000000023E-002     4.7578620635855567E-007
   2.6000000000000023E-002     5.0766877731099794E-007
   2.6500000000000024E-002     5.4165694397095717E-007
   2.7000000000000024E-002     5.7789026137021644E-007
   2.7500000000000024E-002     6.1651660047418823E-007
   2.8000000000000025E-002     6.5769308186355609E-007
   2.8500000000000025E-002     7.0158565939835245E-007
   2.9000000000000026E-002     7.4837051392264205E-007
   2.9500000000000026E-002     7.9823372274131770E-007
   3.0000000000000027E-002     8.5137287760526347E-007
   3.0500000000000027E-002     9.0799686580182499E-007
   3.1000000000000028E-002     9.6832681649102392E-007
   3.1500000000000028E-002     1.0325963755905799E-006
   3.2000000000000028E-002     1.1010528525239869E-006