 -0.23999999999999999          0.0000000000000000     
 -0.23949999999999999          5.8506454889140080E-012
 -0.23899999999999999          1.5794730107154820E-011
 -0.23849999999999999          2.6345651354953148E-011
 -0.23799999999999999          3.3193038595502600E-011
 -0.23749999999999999          3.2377617947831894E-011
 -0.23699999999999999          2.1459414106805852E-011
 -0.23649999999999999          3.9921494929262558E-013
 -0.23599999999999999         -2.8066932458714611E-011
 -0.23549999999999999         -5.8669569202862704E-011
 -0.23499999999999999         -8.4435632097257241E-011
 -0.23449999999999999         -9.7943889110219118E-011
 -0.23399999999999999         -9.2743451807208999E-011
 -0.23349999999999999         -6.4628982721082195E-011
 -0.23299999999999998         -1.2490051527758173E-011
 -0.23249999999999998          6.1461780109794972E-011
 -0.23199999999999998          1.5215270710022821E-010
 -0.23149999999999998          2.5271001957705153E-010
 -0.23099999999999998          3.5591266045464920E-010
 -0.23049999999999998          4.5572556839346134E-010
 -0.22999999999999998          5.4859033982168626E-010
 -0.22949999999999998          6.3419314244583802E-010
 -0.22899999999999998          7.1553946101587940E-010
 -0.22849999999999998          7.9831241617256410E-010
 -0.22799999999999998          8.8964696720594816E-010
 -0.22749999999999998          9.9657970764610582E-010
 -0.22699999999999998          1.1245095965506380E-009
 -0.22649999999999998          1.2760059675542834E-009
 -0.22599999999999998          1.4502322676079871E-009
 -0.22549999999999998          1.6431254135085283E-009
 -0.22499999999999998          1.8483085062470650E-009
 -0.22449999999999998          2.0585586568699910E-009
 -0.22399999999999998          2.2675266109217773E-009
 -0.22349999999999998          2.4713500135220556E-009
 -0.22299999999999998          2.6698072641551107E-009
 -0.22249999999999998          2.8667643814372923E-009
 -0.22199999999999998          3.0697959729764079E-009
 -0.22150000000000000          3.2890425938347789E-009
 -0.22100000000000000          3.5355227634426001E-009
 -0.22050000000000000          3.8192369267164850E-009
 -0.22000000000000000          4.1474437217914328E-009
 -0.21950000000000000          4.5234633816448877E-009
 -0.21900000000000000          4.9462554052581709E-009
 -0.21850000000000000          5.4108615366033064E-009
 -0.21800000000000000          5.9096350035758860E-009
 -0.21750000000000000          6.4340062166934331E-009
 -0.21700000000000000          6.9764416466000512E-009
 -0.21650000000000000          7.5321997528021711E-009
 -0.21600000000000000          8.1005451235682813E-009
 -0.21550000000000000          8.6851761338380129E-009
 -0.21500000000000000          9.2938057250080419E-009
 -0.21450000000000000          9.9369801276338876E-009
 -0.21400000000000000          1.0626398427859840E-008
 -0.21350000000000000          1.1373073149911761E-008
 -0.21299999999999999          1.2185714659551650E-008
 -0.21249999999999999          1.3069657356368225E-008
 -0.21199999999999999          1.4026542594081093E-008
 -0.21149999999999999          1.5054801849601063E-008
 -0.21099999999999999          1.6150840664863608E-008
 -0.21049999999999999          1.7310654243374302E-008
 -0.20999999999999999          1.8531553180878291E-008
 -0.20949999999999999          1.9813644058785940E-008
 -0.20899999999999999          2.1160774466011389E-008
 -0.20849999999999999          2.2580778136216395E-008
 -0.20799999999999999          2.4084970462467936E-008
 -0.20749999999999999          2.5687054261425146E-008
 -0.20699999999999999          2.7401640068092092E-008
 -0.20649999999999999          2.9242736232504285E-008
 -0.20599999999999999          3.1222480600945346E-008
 -0.20549999999999999          3.3350396222431300E-008
 -0.20499999999999999          3.5633267003731817E-008
 -0.20449999999999999          3.8075668840065191E-008
 -0.20399999999999999          4.0680991020280999E-008
 -0.20349999999999999          4.3452743625493895E-008
 -0.20299999999999999          4.6395850716862697E-008
 -0.20249999999999999          4.9517677069843558E-008
 -0.20199999999999999          5.2828607266519612E-008
 -0.20149999999999998          5.6342081222737761E-008
 -0.20099999999999998          6.0074121677189396E-008
 -0.20049999999999998          6.4042517067264271E-008
 -0.19999999999999998          6.8265840980075154E-008
 -0.19949999999999998          7.2762567526751809E-008
 -0.19899999999999998          7.7550502908252383E-008
 -0.19849999999999998          8.2646621990534186E-008
 -0.19799999999999998          8.8067331205365917E-008
 -0.19749999999999998          9.3829157776781358E-008
 -0.19699999999999998          9.9949581056080206E-008
 -0.19649999999999998          1.0644790648939306E-007
 -0.19600000000000001          1.1334598326584455E-007
 -0.19550000000000001          1.2066857379977591E-007
 -0.19500000000000001          1.2844330399275350E-007
 -0.19450000000000001          1.3670032217305561E-007
 -0.19400000000000001          1.4547168802891974E-007
 -0.19350000000000001          1.5479068338208890E-007
 -0.19300000000000000          1.6469132901875128E-007
 -0.19250000000000000          1.7520810047244595E-007
 -0.19200000000000000          1.8637601328919118E-007
 -0.19150000000000000          1.9823116303996358E-007
 -0.19100000000000000          2.1081140744172444E-007
 -0.19050000000000000          2.2415723321955738E-007
 -0.19000000000000000          2.3831256612538709E-007
 -0.18950000000000000          2.5332525410703965E-007
 -0.18900000000000000          2.6924723783849913E-007
 -0.18850000000000000          2.8613442282221513E-007
 -0.18800000000000000          3.0404603990064061E-007
 -0.18750000000000000          3.2304396313520556E-007
 -0.18700000000000000          3.4319211295041896E-007
 -0.18650000000000000          3.6455605822993675E-007
 -0.18600000000000000          3.8720276052117697E-007
 -0.18550000000000000          4.1120128457805549E-007
 -0.18500000000000000          4.3662350890372181E-007
 -0.18450000000000000          4.6354534788406454E-007
 -0.18400000000000000          4.9204811602976406E-007
 -0.18350000000000000          5.2221975010979804E-007
 -0.18300000000000000          5.5415551969417720E-007
 -0.18250000000000000          5.8795848190129618E-007
 -0.18200000000000000          6.2373936771109584E-007
 -0.18149999999999999          6.6161572931378032E-007
 -0.18099999999999999          7.0171125798879075E-007
 -0.18049999999999999          7.4415481776668457E-007
 -0.17999999999999999          7.8907936540417722E-007
 -0.17949999999999999          8.3662206407097983E-007
 -0.17899999999999999          8.8692416966296150E-007
 -0.17849999999999999          9.4013228135736426E-007
 -0.17799999999999999          9.9639953532459913E-007
 -0.17749999999999999          1.0558873100308119E-006
 -0.17699999999999999          1.1187673862878000E-006
 -0.17649999999999999          1.1852227999042952E-006
 -0.17599999999999999          1.2554493196148542E-006
 -0.17549999999999999          1.3296560155140469E-006
 -0.17499999999999999          1.4080645769354305E-006
 -0.17449999999999999          1.4909091987647116E-006
 -0.17399999999999999          1.5784352171976934E-006
 -0.17349999999999999          1.6708987686797627E-006
 -0.17299999999999999          1.7685657667243504E-006
 -0.17249999999999999          1.8717122429734445E-006
 -0.17199999999999999          1.9806248019449413E-006
 -0.17149999999999999          2.0956024400220485E-006
 -0.17099999999999999          2.2169579096953385E-006
 -0.17049999999999998          2.3450206754205283E-006
 -0.16999999999999998          2.4801386189210461E-006
 -0.16949999999999998          2.6226796308037592E-006
 -0.16899999999999998          2.7730336569220526E-006
 -0.16849999999999998          2.9316124710021541E-006
 -0.16799999999999998          3.0988510388851864E-006
 -0.16749999999999998          3.2752066090324661E-006
 -0.16699999999999998          3.4611582577781519E-006
 -0.16649999999999998          3.6572062072082190E-006
 -0.16599999999999998          3.8638727346551605E-006
 -0.16549999999999998          4.0817012632032856E-006
 -0.16499999999999998          4.3112595449201763E-006
 -0.16449999999999998          4.5531396608566865E-006
 -0.16399999999999998          4.8079623411467765E-006
 -0.16349999999999998          5.0763765102601610E-006
 -0.16299999999999998          5.3590651987178717E-006
 -0.16249999999999998          5.6567450883449055E-006
 -0.16199999999999998          5.9701701502490323E-006
 -0.16149999999999998          6.3001316448207945E-006
 -0.16099999999999998          6.6474599407229107E-006
 -0.16049999999999998          7.0130240601429250E-006
 -0.15999999999999998          7.3977330430352595E-006
 -0.15949999999999998          7.8025368566159159E-006
 -0.15899999999999997          8.2284259406151250E-006
 -0.15849999999999997          8.6764357547508553E-006
 -0.15799999999999997          9.1476467787288129E-006
 -0.15749999999999997          9.6431867859791964E-006
 -0.15699999999999997          1.0164236300624907E-005
 -0.15649999999999997          1.0712028597481549E-005
 -0.15599999999999997          1.1287853340036236E-005
 -0.15549999999999997          1.1893062037415802E-005
 -0.15499999999999997          1.2529067134892102E-005
 -0.15449999999999997          1.3197346561355516E-005
 -0.15399999999999997          1.3899444638809655E-005
 -0.15349999999999997          1.4636974810855463E-005
 -0.15299999999999997          1.5411620552185923E-005
 -0.15249999999999997          1.6225138097070158E-005
 -0.15200000000000000          1.7079362805816345E-005
 -0.15150000000000000          1.7976200979319401E-005
 -0.15100000000000000          1.8917649867944419E-005
 -0.15049999999999999          1.9905788576579653E-005
 -0.14999999999999999          2.0942783521604724E-005
 -0.14949999999999999          2.2030901163816452E-005
 -0.14899999999999999          2.3172504370450042E-005
 -0.14849999999999999          2.4370054234168492E-005
 -0.14799999999999999          2.5626119168009609E-005
 -0.14749999999999999          2.6943376724375412E-005
 -0.14699999999999999          2.8324617233010940E-005
 -0.14649999999999999          2.9772749257972464E-005
 -0.14599999999999999          3.1290797778638080E-005
 -0.14549999999999999          3.2881911465665326E-005
 -0.14499999999999999          3.4549375413917005E-005
 -0.14449999999999999          3.6296609323471785E-005
 -0.14399999999999999          3.8127167499624193E-005
 -0.14349999999999999          4.0044749766821042E-005
 -0.14299999999999999          4.2053208744619042E-005
 -0.14249999999999999          4.4156564399600029E-005
 -0.14199999999999999          4.6358989493455738E-005
 -0.14149999999999999          4.8664824134903029E-005
 -0.14099999999999999          5.1078593969577923E-005
 -0.14049999999999999          5.3604995628120378E-005
 -0.13999999999999999          5.6248911278089508E-005
 -0.13949999999999999          5.9015419537900016E-005
 -0.13899999999999998          6.1909799114800990E-005
 -0.13849999999999998          6.4937514252960682E-005
 -0.13799999999999998          6.8104280217085034E-005
 -0.13749999999999998          7.1415990532841533E-005
 -0.13699999999999998          7.4878793384414166E-005
 -0.13649999999999998          7.8499069786630571E-005
 -0.13599999999999998          8.2283448136877269E-005
 -0.13550000000000001          8.6238804215099663E-005
 -0.13500000000000001          9.0372290287632495E-005
 -0.13450000000000001          9.4691306003369391E-005
 -0.13400000000000001          9.9203542049508542E-005
 -0.13350000000000001          1.0391699470346794E-004
 -0.13300000000000001          1.0883991490118206E-004
 -0.13250000000000001          1.1398088099667802E-004
 -0.13200000000000001          1.1934878421016037E-004
 -0.13150000000000001          1.2495282862801105E-004
 -0.13100000000000001          1.3080256758257747E-004
 -0.13050000000000000          1.3690788182429969E-004
 -0.13000000000000000          1.4327903045341372E-004
 -0.12950000000000000          1.4992663636803627E-004
 -0.12900000000000000          1.5686170081607997E-004
 -0.12850000000000000          1.6409560339525342E-004
 -0.12800000000000000          1.7164016026072204E-004
 -0.12750000000000000          1.7950758046936244E-004
 -0.12700000000000000          1.8771050963550806E-004
 -0.12650000000000000          1.9626201537903398E-004
 -0.12600000000000000          2.0517563098110259E-004
 -0.12550000000000000          2.1446535538416356E-004
 -0.12499999999999999          2.2414562408812344E-004
 -0.12449999999999999          2.3423139646183699E-004
 -0.12399999999999999          2.4473815574310720E-004
 -0.12349999999999998          2.5568186538293958E-004
 -0.12299999999999998          2.6707901270128787E-004
 -0.12249999999999998          2.7894671075046062E-004
 -0.12199999999999998          2.9130253824405372E-004
 -0.12149999999999998          3.0416474328376353E-004
 -0.12099999999999998          3.1755215604789555E-004
 -0.12049999999999998          3.3148415968753397E-004
 -0.12000000000000000          3.4598080674186349E-004
 -0.11950000000000000          3.6106279003433883E-004
 -0.11899999999999999          3.7675138446502388E-004
 -0.11849999999999999          3.9306862163357437E-004
 -0.11799999999999999          4.1003720252774656E-004
 -0.11749999999999999          4.2768052662722766E-004
 -0.11699999999999999          4.4602269190363586E-004
 -0.11649999999999999          4.6508864033967257E-004
 -0.11599999999999999          4.8490395420230925E-004
 -0.11549999999999999          5.0549505976960063E-004
 -0.11499999999999999          5.2688916912302375E-004
 -0.11449999999999999          5.4911436745896935E-004
 -0.11399999999999999          5.7219940936192870E-004
 -0.11349999999999999          5.9617409715428948E-004
 -0.11299999999999999          6.2106893165037036E-004
 -0.11249999999999999          6.4691540319472551E-004
 -0.11199999999999999          6.7374593345448375E-004
 -0.11149999999999999          7.0159375900402665E-004
 -0.11099999999999999          7.3049322236329317E-004
 -0.11049999999999999          7.6047953916713595E-004
 -0.10999999999999999          7.9158891458064318E-004
 -0.10949999999999999          8.2385860150679946E-004
 -0.10899999999999999          8.5732678417116404E-004
 -0.10849999999999999          8.9203286916017532E-004
 -0.10799999999999998          9.2801713617518544E-004
 -0.10749999999999998          9.6532097086310387E-004
 -0.10699999999999998          1.0039870394393802E-003
 -0.10649999999999998          1.0440589394420385E-003
 -0.10599999999999998          1.0855816071853042E-003
 -0.10549999999999998          1.1286009103059769E-003
 -0.10499999999999998          1.1731641134247184E-003
 -0.10449999999999998          1.2193196453154087E-003
 -0.10399999999999998          1.2671170989051461E-003
 -0.10349999999999998          1.3166072312742472E-003
 -0.10299999999999998          1.3678421964868903E-003
 -0.10249999999999998          1.4208753127604723E-003
 -0.10199999999999998          1.4757614117115736E-003
 -0.10149999999999998          1.5325564891099930E-003
 -0.10099999999999998          1.5913178212940693E-003
 -0.10049999999999998          1.6521044308319688E-003
  -9.9999999999999978E-002     1.7149761551991105E-003
  -9.9499999999999977E-002     1.7799944616854191E-003
  -9.8999999999999977E-002     1.8472223309800029E-003
  -9.8499999999999976E-002     1.9167240243405104E-003
  -9.7999999999999976E-002     1.9885650835931301E-003
  -9.7499999999999976E-002     2.0628129132091999E-003
  -9.6999999999999975E-002     2.1395361982285976E-003
  -9.6499999999999975E-002     2.2188047878444195E-003
  -9.5999999999999974E-002     2.3006906267255545E-003
  -9.5500000000000002E-002     2.3852670565247536E-003
  -9.5000000000000001E-002     2.4726083502173424E-003
  -9.4500000000000001E-002     2.5627911090850830E-003
  -9.4000000000000000E-002     2.6558926329016685E-003
  -9.3500000000000000E-002     2.7519925497472286E-003
  -9.2999999999999999E-002     2.8511716518551111E-003
  -9.2499999999999999E-002     2.9535123612731695E-003
  -9.1999999999999998E-002     3.0590987298637629E-003
  -9.1499999999999998E-002     3.1680159736424685E-003
  -9.0999999999999998E-002     3.2803516369313002E-003
  -9.0499999999999997E-002     3.3961941953748465E-003
  -8.9999999999999997E-002     3.5156342200934887E-003
  -8.9499999999999996E-002     3.6387636791914701E-003
  -8.8999999999999996E-002     3.7656761705875397E-003
  -8.8499999999999995E-002     3.8964669220149517E-003
  -8.7999999999999995E-002     4.0312325581908226E-003
  -8.7499999999999994E-002     4.1700717993080616E-003
  -8.6999999999999994E-002     4.3130838312208652E-003
  -8.6499999999999994E-002     4.4603701680898666E-003
  -8.5999999999999993E-002     4.6120337210595608E-003
  -8.5499999999999993E-002     4.7681797295808792E-003
  -8.4999999999999992E-002     4.9289138987660408E-003
  -8.4499999999999992E-002     5.0943437963724136E-003
  -8.3999999999999991E-002     5.2645788528025150E-003
  -8.3499999999999991E-002     5.4397294297814369E-003
  -8.2999999999999990E-002     5.6199082173407078E-003
  -8.2499999999999990E-002     5.8052279055118561E-003
  -8.1999999999999990E-002     5.9958039782941341E-003
  -8.1499999999999989E-002     6.1917533166706562E-003
  -8.0999999999999989E-002     6.3931928016245365E-003
  -8.0499999999999988E-002     6.6002425737679005E-003
  -7.9999999999999988E-002     6.8130223080515862E-003
  -7.9499999999999987E-002     7.0316535420715809E-003
  -7.8999999999999987E-002     7.2562596760690212E-003
  -7.8499999999999986E-002     7.4869655072689056E-003
  -7.7999999999999986E-002     7.7238953672349453E-003
  -7.7499999999999986E-002     7.9671768471598625E-003
  -7.6999999999999985E-002     8.2169361412525177E-003
  -7.6499999999999985E-002     8.4733022376894951E-003
  -7.5999999999999984E-002     8.7364055216312408E-003
  -7.5499999999999984E-002     9.0063754469156265E-003
  -7.4999999999999983E-002     9.2833433300256729E-003
  -7.4499999999999983E-002     9.5674423500895500E-003
  -7.3999999999999982E-002     9.8588038235902786E-003
  -7.3499999999999982E-002     1.0157561860978603E-002
  -7.2999999999999982E-002     1.0463850572705269E-002
  -7.2499999999999981E-002     1.0777804069221020E-002
  -7.1999999999999981E-002     1.1099557392299175E-002
  -7.1499999999999980E-002     1.1429246515035629E-002
  -7.0999999999999980E-002     1.1767006479203701E-002
  -7.0499999999999979E-002     1.2112973257899284E-002
  -6.9999999999999979E-002     1.2467282824218273E-002
  -6.9499999999999978E-002     1.2830071151256561E-002
  -6.8999999999999978E-002     1.3201475143432617E-002
  -6.8499999999999978E-002     1.3581629842519760E-002
  -6.7999999999999977E-002     1.3970670290291309E-002
  -6.7499999999999977E-002     1.4368731528520584E-002
  -6.6999999999999976E-002     1.4775949530303478E-002
  -6.6499999999999976E-002     1.5192457474768162E-002
  -6.5999999999999975E-002     1.5618388541042805E-002
  -6.5499999999999975E-002     1.6053875908255577E-002
  -6.4999999999999974E-002     1.6499049961566925E-002
  -6.4499999999999974E-002     1.6954040154814720E-002
  -6.4000000000000001E-002     1.7418978735804558E-002
  -6.3500000000000001E-002     1.7893990501761436E-002
  -6.3000000000000000E-002     1.8379202112555504E-002
  -6.2500000000000000E-002     1.8874740228056908E-002
  -6.2000000000000000E-002     1.9380727782845497E-002
  -6.1499999999999999E-002     1.9897283986210823E-002
  -6.0999999999999999E-002     2.0424528047442436E-002
  -6.0499999999999998E-002     2.0962577313184738E-002
  -5.9999999999999998E-002     2.1511545404791832E-002
  -5.9499999999999997E-002     2.2071545943617821E-002
  -5.8999999999999997E-002     2.2642688825726509E-002
  -5.8499999999999996E-002     2.3225078359246254E-002
  -5.7999999999999996E-002     2.3818818852305412E-002
  -5.7499999999999996E-002     2.4424009025096893E-002
  -5.6999999999999995E-002     2.5040743872523308E-002
  -5.6499999999999995E-002     2.5669120252132416E-002
  -5.5999999999999994E-002     2.6309223845601082E-002
  -5.5499999999999994E-002     2.6961144059896469E-002
  -5.4999999999999993E-002     2.7624960988759995E-002
  -5.4499999999999993E-002     2.8300751000642776E-002
  -5.3999999999999992E-002     2.8988590463995934E-002
  -5.3499999999999992E-002     2.9688544571399689E-002
  -5.2999999999999992E-002     3.0400676652789116E-002
  -5.2499999999999991E-002     3.1125046312808990E-002
  -5.1999999999999991E-002     3.1861707568168640E-002
  -5.1499999999999990E-002     3.2610703259706497E-002
  -5.0999999999999990E-002     3.3372074365615845E-002
  -5.0499999999999989E-002     3.4145861864089966E-002
  -4.9999999999999989E-002     3.4932091832160950E-002
  -4.9499999999999988E-002     3.5730790346860886E-002
  -4.8999999999999988E-002     3.6541968584060669E-002
  -4.8499999999999988E-002     3.7365641444921494E-002
  -4.7999999999999987E-002     3.8201812654733658E-002
  -4.7499999999999987E-002     3.9050478488206863E-002
  -4.6999999999999986E-002     3.9911624044179916E-002
  -4.6499999999999986E-002     4.0785234421491623E-002
  -4.5999999999999985E-002     4.1671283543109894E-002
  -4.5499999999999985E-002     4.2569737881422043E-002
  -4.4999999999999984E-002     4.3480552732944489E-002
  -4.4499999999999984E-002     4.4403679668903351E-002
  -4.3999999999999984E-002     4.5339059084653854E-002
  -4.3499999999999983E-002     4.6286620199680328E-002
  -4.2999999999999983E-002     4.7246288508176804E-002
  -4.2499999999999982E-002     4.8217974603176117E-002
  -4.1999999999999982E-002     4.9201581627130508E-002
  -4.1499999999999981E-002     5.0197005271911621E-002
  -4.0999999999999981E-002     5.1204126328229904E-002
  -4.0499999999999980E-002     5.2222821861505508E-002
  -3.9999999999999980E-002     5.3252957761287689E-002
  -3.9499999999999980E-002     5.4294388741254807E-002
  -3.8999999999999979E-002     5.5346954613924026E-002
  -3.8499999999999979E-002     5.6410491466522217E-002
  -3.7999999999999978E-002     5.7484816759824753E-002
  -3.7499999999999978E-002     5.8569747954607010E-002
  -3.6999999999999977E-002     5.9665076434612274E-002
  -3.6499999999999977E-002     6.0770593583583832E-002
  -3.5999999999999976E-002     6.1886075884103775E-002
  -3.5499999999999976E-002     6.3011288642883301E-002
  -3.4999999999999976E-002     6.4145974814891815E-002
  -3.4499999999999975E-002     6.5289884805679321E-002
  -3.3999999999999975E-002     6.6442735493183136E-002
  -3.3499999999999974E-002     6.7604251205921173E-002
  -3.2999999999999974E-002     6.8774126470088959E-002
  -3.2499999999999973E-002     6.9952055811882019E-002
  -3.1999999999999973E-002     7.1137718856334686E-002
  -3.1500000000000000E-002     7.2330772876739502E-002
  -3.1000000000000000E-002     7.3530875146389008E-002
  -3.0499999999999999E-002     7.4737653136253357E-002
  -2.9999999999999999E-002     7.5950734317302704E-002
  -2.9499999999999998E-002     7.7169738709926605E-002
  -2.8999999999999998E-002     7.8394256532192230E-002
  -2.8499999999999998E-002     7.9623885452747345E-002
  -2.7999999999999997E-002     8.0858193337917328E-002
  -2.7499999999999997E-002     8.2096733152866364E-002
  -2.6999999999999996E-002     8.3339057862758636E-002
  -2.6499999999999996E-002     8.4584690630435944E-002
  -2.5999999999999995E-002     8.5833154618740082E-002
  -2.5499999999999995E-002     8.7083943188190460E-002
  -2.4999999999999994E-002     8.8336549699306488E-002
  -2.4499999999999994E-002     8.9590452611446381E-002
  -2.3999999999999994E-002     9.0845115482807159E-002
  -2.3499999999999993E-002     9.2099986970424652E-002
  -2.2999999999999993E-002     9.3354500830173492E-002
  -2.2499999999999992E-002     9.4608090817928314E-002
  -2.1999999999999992E-002     9.5860168337821960E-002
  -2.1499999999999991E-002     9.7110129892826080E-002
  -2.0999999999999991E-002     9.8357371985912323E-002
  -2.0499999999999990E-002     9.9601261317729950E-002
  -1.9999999999999990E-002    0.10084114968776703     
  -1.9499999999999990E-002    0.10207638144493103     
  -1.8999999999999989E-002    0.10330628603696823     
  -1.8499999999999989E-002    0.10453018546104431     
  -1.7999999999999988E-002    0.10574739426374435     
  -1.7499999999999988E-002    0.10695719718933105     
  -1.6999999999999987E-002    0.10815889388322830     
  -1.6499999999999987E-002    0.10935175418853760     
  -1.5999999999999986E-002    0.11053505539894104     
  -1.5499999999999986E-002    0.11170804500579834     
  -1.4999999999999986E-002    0.11286997795104980     
  -1.4499999999999985E-002    0.11402007937431335     
  -1.3999999999999985E-002    0.11515758186578751     
  -1.3499999999999984E-002    0.11628171056509018     
  -1.2999999999999984E-002    0.11739165335893631     
  -1.2499999999999983E-002    0.11848660558462143     
  -1.1999999999999983E-002    0.11956575512886047     
  -1.1499999999999982E-002    0.12062827497720718     
  -1.0999999999999982E-002    0.12167333811521530     
  -1.0499999999999982E-002    0.12270011007785797     
  -9.9999999999999811E-003    0.12370774894952774     
  -9.4999999999999807E-003    0.12469539791345596     
  -8.9999999999999802E-003    0.12566220760345459     
  -8.4999999999999798E-003    0.12660732865333557     
  -7.9999999999999793E-003    0.12752988934516907     
  -7.4999999999999789E-003    0.12842904031276703     
  -6.9999999999999785E-003    0.12930390238761902     
  -6.4999999999999780E-003    0.13015358150005341     
  -5.9999999999999776E-003    0.13097721338272095     
  -5.4999999999999771E-003    0.13177391886711121     
  -4.9999999999999767E-003    0.13254281878471375     
  -4.4999999999999762E-003    0.13328301906585693     
  -3.9999999999999758E-003    0.13399362564086914     
  -3.4999999999999754E-003    0.13467377424240112     
  -2.9999999999999749E-003    0.13532255589962006     
  -2.4999999999999745E-003    0.13593910634517670     
  -1.9999999999999740E-003    0.13652254641056061     
  -1.4999999999999736E-003    0.13707199692726135     
  -9.9999999999997313E-004    0.13758657872676849     
  -4.9999999999997269E-004    0.13806544244289398     
   0.0000000000000000         0.13850773870944977     
   5.0000000000000044E-004    0.13891260325908661     
   1.0000000000000009E-003    0.13927915692329407     
   1.5000000000000013E-003    0.13960655033588409     
   2.0000000000000018E-003    0.13989396393299103     
   2.5000000000000022E-003    0.14014054834842682     
   3.0000000000000027E-003    0.14034546911716461     
   3.5000000000000031E-003    0.14050793647766113     
   4.0000000000000036E-003    0.14062714576721191     
   4.5000000000000040E-003    0.14070230722427368     
   5.0000000000000044E-003    0.14073264598846436     
   5.5000000000000049E-003    0.14071741700172424     
   6.0000000000000053E-003    0.14065584540367126     
   6.5000000000000058E-003    0.14054721593856812     
   7.0000000000000062E-003    0.14039078354835510     
   7.5000000000000067E-003    0.14018586277961731     
   8.0000000000000071E-003    0.13993173837661743     
   8.5000000000000075E-003    0.13962775468826294     
   9.0000000000000080E-003    0.13927325606346130     
   9.5000000000000084E-003    0.13886760175228119     
   1.0000000000000009E-002    0.13841018080711365     
   1.0500000000000009E-002    0.13790038228034973     
   1.1000000000000010E-002    0.13733765482902527     
   1.1500000000000010E-002    0.13672143220901489     
   1.2000000000000011E-002    0.13605120778083801     
   1.2500000000000011E-002    0.13532644510269165     
   1.3000000000000012E-002    0.13454668223857880     
   1.3500000000000012E-002    0.13371145725250244     
   1.4000000000000012E-002    0.13282032310962677     
   1.4500000000000013E-002    0.13187289237976074     
   1.5000000000000013E-002    0.13086876273155212     
   1.5500000000000014E-002    0.12980759143829346     
   1.6000000000000014E-002    0.12868905067443848     
   1.6500000000000015E-002    0.12751284241676331     
   1.7000000000000015E-002    0.12627872824668884     
   1.7500000000000016E-002    0.12498644739389420     
   1.8000000000000016E-002    0.12363581359386444     
   1.8500000000000016E-002    0.12222664058208466     
   1.9000000000000017E-002    0.12075877934694290     
   1.9500000000000017E-002    0.11923212558031082     
   2.0000000000000018E-002    0.11764659732580185     
   2.0500000000000018E-002    0.11600214987993240     
   2.1000000000000019E-002    0.11429876834154129     
   2.1500000000000019E-002    0.11253646016120911     
   2.2000000000000020E-002    0.11071529239416122     
   2.2500000000000020E-002    0.10883535444736481     
   2.3000000000000020E-002    0.10689678788185120     
   2.3500000000000021E-002    0.10489975661039352     
   2.4000000000000021E-002    0.10284446179866791     
   2.4500000000000022E-002    0.10073114931583405     
   2.5000000000000022E-002     9.8560094833374023E-002
   2.5500000000000023E-002     9.6331603825092316E-002
   2.6000000000000023E-002     9.4046026468276978E-002
   2.6500000000000024E-002     9.1703735291957855E-002
   2.7000000000000024E-002     8.9305162429809570E-002
   2.7500000000000024E-002     8.6850754916667938E-002
   2.8000000000000025E-002     8.4341004490852356E-002
   2.8500000000000025E-002     8.1776447594165802E-002
   2.9000000000000026E-002     7.9157665371894836E-002
   2.9500000000000026E-002     7.6485261321067810E-002
   3.0000000000000027E-002     7.3759898543357849E-002
   3.0500000000000027E-002     7.0982262492179871E-002
   3.1000000000000028E-002     6.8153098225593567E-002
   3.1500000000000028E-002     6.5273165702819824E-002
   3.2000000000000028E-002     6.2343284487724304E-002