 -0.23999999999999999          0.0000000000000000     
 -0.23949999999999999          0.0000000000000000     
 -0.23899999999999999          0.0000000000000000     
 -0.23849999999999999          0.0000000000000000     
 -0.23799999999999999          1.3770415235421105E-016
 -0.23749999999999999          1.1102239295291396E-015
 -0.23699999999999999          4.8395655488846894E-015
 -0.23649999999999999          1.5016290873045034E-014
 -0.23599999999999999          3.6862082020727936E-014
 -0.23549999999999999          7.5407660804501627E-014
 -0.23499999999999999          1.3194896368222529E-013
 -0.23449999999999999          1.9912961930508278E-013
 -0.23399999999999999          2.5610375639833532E-013
 -0.23349999999999999          2.6609028475350288E-013
 -0.23299999999999998          1.7890421287487772E-013
 -0.23249999999999998         -5.9602002700008863E-014
 -0.23199999999999998         -4.9090917998759082E-013
 -0.23149999999999998         -1.1221390669927735E-012
 -0.23099999999999998         -1.9039610431694051E-012
 -0.23049999999999998         -2.7146367881453507E-012
 -0.22999999999999998         -3.3571965023240276E-012
 -0.22949999999999998         -3.5752699129869872E-012
 -0.22899999999999998         -3.0897633052770155E-012
 -0.22849999999999998         -1.6539207733637147E-012
 -0.22799999999999998          8.8058030471599017E-013
 -0.22749999999999998          4.4977966932612320E-012
 -0.22699999999999998          8.9650011953439447E-012
 -0.22649999999999998          1.3805893410505635E-011
 -0.22599999999999998          1.8308555480170363E-011
 -0.22549999999999998          2.1572342104341000E-011
 -0.22499999999999998          2.2592494777673014E-011
 -0.22449999999999998          2.0377063700630328E-011
 -0.22399999999999998          1.4087903503718925E-011
 -0.22349999999999998          3.1964130815288597E-012
 -0.22299999999999998         -1.2355606063786966E-011
 -0.22249999999999998         -3.2001002623434902E-011
 -0.22199999999999998         -5.4412933660501628E-011
 -0.22150000000000000         -7.7412925830530871E-011
 -0.22100000000000000         -9.7952147876624416E-011
 -0.22050000000000000         -1.1220532267508574E-010
 -0.22000000000000000         -1.1582016856206121E-010
 -0.21950000000000000         -1.0435816107263713E-010
 -0.21900000000000000         -7.3941000957586167E-011
 -0.21850000000000000         -2.2077669795507280E-011
 -0.21800000000000000          5.1402695558238498E-011
 -0.21750000000000000          1.4344792095268758E-010
 -0.21700000000000000          2.4709393347402804E-010
 -0.21650000000000000          3.5120445890556602E-010
 -0.21600000000000000          4.4084665263219929E-010
 -0.21550000000000000          4.9844888523378168E-010
 -0.21500000000000000          5.0578565661818670E-010
 -0.21450000000000000          4.4668080296809692E-010
 -0.21400000000000000          3.1015394597996739E-010
 -0.21350000000000000          9.3572993011503532E-011
 -0.21299999999999999         -1.9473958649466988E-010
 -0.21249999999999999         -5.3403062863898657E-010
 -0.21199999999999999         -8.9128446432749873E-010
 -0.21149999999999999         -1.2233713134731264E-009
 -0.21099999999999999         -1.4812196265648548E-009
 -0.21049999999999999         -1.6157266015724219E-009
 -0.20999999999999999         -1.5847577911115875E-009
 -0.20949999999999999         -1.3603013144458392E-009
 -0.20899999999999999         -9.3466517159619205E-010
 -0.20849999999999999         -3.2462251978122698E-010
 -0.20799999999999999          4.2742434074106951E-010
 -0.20749999999999999          1.2557745844963888E-009
 -0.20699999999999999          2.0772996595337088E-009
 -0.20649999999999999          2.8002996374340928E-009
 -0.20599999999999999          3.3352808842016849E-009
 -0.20549999999999999          3.6061990381483091E-009
 -0.20499999999999999          3.5605536104764368E-009
 -0.20449999999999999          3.1767908165312529E-009
 -0.20399999999999999          2.4678798868886024E-009
 -0.20349999999999999          1.4804386422840169E-009
 -0.20299999999999999          2.8954978751444819E-010
 -0.20249999999999999         -1.0099507278879423E-009
 -0.20199999999999999         -2.3143184769062678E-009
 -0.20149999999999998         -3.5221803447552370E-009
 -0.20099999999999998         -4.5444956842974129E-009
 -0.20049999999999998         -5.3117578944558455E-009
 -0.19999999999999998         -5.7775207298828905E-009
 -0.19949999999999998         -5.9180992743617841E-009
 -0.19899999999999998         -5.7290418594370791E-009
 -0.19849999999999998         -5.2195905246478778E-009
 -0.19799999999999998         -4.4067738163454513E-009
 -0.19749999999999998         -3.3107970190579010E-009
 -0.19699999999999998         -1.9531264863839040E-009
 -0.19649999999999998         -3.5798785500440223E-010
 -0.19600000000000001          1.4428052346158030E-009
 -0.19550000000000001          3.4026684052606678E-009
 -0.19500000000000001          5.4524278645358461E-009
 -0.19450000000000001          7.4940253480316689E-009
 -0.19400000000000001          9.3980396298558321E-009
 -0.19350000000000001          1.1006814015721730E-008
 -0.19300000000000000          1.2144185363470112E-008
 -0.19250000000000000          1.2631775361259844E-008
 -0.19200000000000000          1.2310433043847340E-008
 -0.19150000000000000          1.1064342882747743E-008
 -0.19100000000000000          8.8444535037585402E-009
 -0.19050000000000000          5.6875856717049435E-009
 -0.19000000000000000          1.7274323878709300E-009
 -0.18950000000000000         -2.8048585570376792E-009
 -0.18900000000000000         -7.5925649958529491E-009
 -0.18850000000000000         -1.2256910249246257E-008
 -0.18800000000000000         -1.6391141290691543E-008
 -0.18750000000000000         -1.9601160686912383E-008
 -0.18700000000000000         -2.1548404567927073E-008
 -0.18650000000000000         -2.1989753732349439E-008
 -0.18600000000000000         -2.0809799980406197E-008
 -0.18550000000000000         -1.8040200283657066E-008
 -0.18500000000000000         -1.3864561641857812E-008
 -0.18450000000000000         -8.6068072351862585E-009
 -0.18400000000000000         -2.7039783376156548E-009
 -0.18350000000000000          3.3332148451534071E-009
 -0.18300000000000000          8.9684176568649485E-009
 -0.18250000000000000          1.3690753450395712E-008
 -0.18200000000000000          1.7063345215317694E-008
 -0.18149999999999999          1.8764187391287256E-008
 -0.18099999999999999          1.8614725021892327E-008
 -0.18049999999999999          1.6594704597306580E-008
 -0.17999999999999999          1.2840054875224260E-008
 -0.17949999999999999          7.6276180482854767E-009
 -0.17899999999999999          1.3463524649882231E-009
 -0.17849999999999999         -5.5390223376673894E-009
 -0.17799999999999999         -1.2528652926269697E-008
 -0.17749999999999999         -1.9127791909794870E-008
 -0.17699999999999999         -2.4882338364981427E-008
 -0.17649999999999999         -2.9406320943201165E-008
 -0.17599999999999999         -3.2400813350589713E-008
 -0.17549999999999999         -3.3662191960569957E-008
 -0.17499999999999999         -3.3081744103956197E-008
 -0.17449999999999999         -3.0636583217941241E-008
 -0.17399999999999999         -2.6379672636429590E-008
 -0.17349999999999999         -2.0424450457872940E-008
 -0.17299999999999999         -1.2931769590005718E-008
 -0.17249999999999999         -4.1031955318413729E-009
 -0.17199999999999999          5.8254559158116953E-009
 -0.17149999999999999          1.6583898783659833E-008
 -0.17099999999999999          2.7869182361392743E-008
 -0.17049999999999998          3.9335091661626184E-008
 -0.16999999999999998          5.0582979119236233E-008
 -0.16949999999999998          6.1182731485673117E-008
 -0.16899999999999998          7.0649625924546895E-008
 -0.16849999999999998          7.8478263820359454E-008
 -0.16799999999999998          8.4156679315199969E-008
 -0.16749999999999998          8.7192826375054393E-008
 -0.16699999999999998          8.7167385389025553E-008
 -0.16649999999999998          8.3746396946857045E-008
 -0.16599999999999998          7.6750141694759774E-008
 -0.16549999999999998          6.6138043123539349E-008
 -0.16499999999999998          5.2093531575444044E-008
 -0.16449999999999998          3.4955188223457037E-008
 -0.16399999999999998          1.5275263371015503E-008
 -0.16349999999999998         -6.2846407118618653E-009
 -0.16299999999999998         -2.8936121576359761E-008
 -0.16249999999999998         -5.1912925773709820E-008
 -0.16199999999999998         -7.4461973782468976E-008
 -0.16149999999999998         -9.5966557855457467E-008
 -0.16099999999999998         -1.1604591562910740E-007
 -0.16049999999999998         -1.3451757130415952E-007
 -0.15999999999999998         -1.5146896816621405E-007
 -0.15949999999999998         -1.6727031548194641E-007
 -0.15899999999999997         -1.8252728534570536E-007
 -0.15849999999999997         -1.9798285051866193E-007
 -0.15799999999999997         -2.1444033260898140E-007
 -0.15749999999999997         -2.3270748596657056E-007
 -0.15699999999999997         -2.5339358989672918E-007
 -0.15649999999999997         -2.7685971121613228E-007
 -0.15599999999999997         -3.0329350115637081E-007
 -0.15549999999999997         -3.3249441397429319E-007
 -0.15499999999999997         -3.6390251812288981E-007
 -0.15449999999999997         -3.9678139265191415E-007
 -0.15399999999999997         -4.3026833655858901E-007
 -0.15349999999999997         -4.6337522387364232E-007
 -0.15299999999999997         -4.9532599575043022E-007
 -0.15249999999999997         -5.2548401936805470E-007
 -0.15200000000000000         -5.5359934114349143E-007
 -0.15150000000000000         -5.7987598675929164E-007
 -0.15100000000000000         -6.0495757279573406E-007
 -0.15049999999999999         -6.2975045637645177E-007
 -0.14999999999999999         -6.5578011644587858E-007
 -0.14949999999999999         -6.8462297493356466E-007
 -0.14899999999999999         -7.1813385124022726E-007
 -0.14849999999999999         -7.5783728469766579E-007
 -0.14799999999999999         -8.0529297801381308E-007
 -0.14749999999999999         -8.6170161204171306E-007
 -0.14699999999999999         -9.2748477105012607E-007
 -0.14649999999999999         -1.0029281306959256E-006
 -0.14599999999999999         -1.0874339090801361E-006
 -0.14549999999999999         -1.1802507749066851E-006
 -0.14499999999999999         -1.2795939635668287E-006
 -0.14449999999999999         -1.3840307499698255E-006
 -0.14399999999999999         -1.4917116372011892E-006
 -0.14349999999999999         -1.6008130612903657E-006
 -0.14299999999999999         -1.7095708256592140E-006
 -0.14249999999999999         -1.8168455551705889E-006
 -0.14199999999999999         -1.9216870304425314E-006
 -0.14149999999999999         -2.0245429778633919E-006
 -0.14099999999999999         -2.1259691863760546E-006
 -0.14049999999999999         -2.2269054317963538E-006
 -0.13999999999999999         -2.3298823815691043E-006
 -0.13949999999999999         -2.4370915497204558E-006
 -0.13899999999999998         -2.5523890633046936E-006
 -0.13849999999999998         -2.6784434810440069E-006
 -0.13799999999999998         -2.8190233030797210E-006
 -0.13749999999999998         -2.9780099207313178E-006
 -0.13699999999999998         -3.1581147831386680E-006
 -0.13649999999999998         -3.3611124886089458E-006
 -0.13599999999999998         -3.5899051941129503E-006
 -0.13550000000000001         -3.8453902314406091E-006
 -0.13500000000000001         -4.1282427617415699E-006
 -0.13450000000000001         -4.4394742721802658E-006
 -0.13400000000000001         -4.7754634822974625E-006
 -0.13350000000000001         -5.1373140864280019E-006
 -0.13300000000000001         -5.5223748710996050E-006
 -0.13250000000000001         -5.9294897460634195E-006
 -0.13200000000000001         -6.3576014306755785E-006
 -0.13150000000000001         -6.8054735028000507E-006
 -0.13100000000000001         -7.2703517803773683E-006
 -0.13050000000000000         -7.7534785729243469E-006
 -0.13000000000000000         -8.2553728070427844E-006
 -0.12950000000000000         -8.7769780220323661E-006
 -0.12900000000000000         -9.3184593738987135E-006
 -0.12850000000000000         -9.8856153736295941E-006
 -0.12800000000000000         -1.0477091911020053E-005
 -0.12750000000000000         -1.1100748218702475E-005
 -0.12700000000000000         -1.1763932668715190E-005
 -0.12650000000000000         -1.2468244485363801E-005
 -0.12600000000000000         -1.3223788348419231E-005
 -0.12550000000000000         -1.4033984051717404E-005
 -0.12499999999999999         -1.4908591957455402E-005
 -0.12449999999999999         -1.5851317962745073E-005
 -0.12399999999999999         -1.6868246137989465E-005
 -0.12349999999999998         -1.7965803731457282E-005
 -0.12299999999999998         -1.9143418478497368E-005
 -0.12249999999999998         -2.0405886551957320E-005
 -0.12199999999999998         -2.1758332639480350E-005
 -0.12149999999999998         -2.3192778534676238E-005
 -0.12099999999999998         -2.4710374079446922E-005
 -0.12049999999999998         -2.6310946257925962E-005
 -0.12000000000000000         -2.7989891783137034E-005
 -0.11950000000000000         -2.9747616998276294E-005
 -0.11899999999999999         -3.1590390303643430E-005
 -0.11849999999999999         -3.3514723265966661E-005
 -0.11799999999999999         -3.5523929566784832E-005
 -0.11749999999999999         -3.7627844033880789E-005
 -0.11699999999999999         -3.9831461565172590E-005
 -0.11649999999999999         -4.2133737685529887E-005
 -0.11599999999999999         -4.4581629887802127E-005
 -0.11549999999999999         -4.7163122888732904E-005
 -0.11499999999999999         -4.9899005516461451E-005
 -0.11449999999999999         -5.2810512977008748E-005
 -0.11399999999999999         -5.5909741540251603E-005
 -0.11349999999999999         -5.9213608856756615E-005
 -0.11299999999999999         -6.2733573446482191E-005
 -0.11249999999999999         -6.6474481126028870E-005
 -0.11199999999999999         -7.0461421788509408E-005
 -0.11149999999999999         -7.4696000179814325E-005
 -0.11099999999999999         -7.9190329700637728E-005
 -0.11049999999999999         -8.3936147181333558E-005
 -0.10999999999999999         -8.8973017827575926E-005
 -0.10949999999999999         -9.4279407199640770E-005
 -0.10899999999999999         -9.9870188539108104E-005
 -0.10849999999999999         -1.0576252599762295E-004
 -0.10799999999999998         -1.1194716308332177E-004
 -0.10749999999999998         -1.1850092370121825E-004
 -0.10699999999999998         -1.2537033246163098E-004
 -0.10649999999999998         -1.3260861200487008E-004
 -0.10599999999999998         -1.4025107765061151E-004
 -0.10549999999999998         -1.4828151010965596E-004
 -0.10499999999999998         -1.5677361551680498E-004
 -0.10449999999999998         -1.6571441788049341E-004
 -0.10399999999999998         -1.7517632447296611E-004
 -0.10349999999999998         -1.8514972797123561E-004
 -0.10299999999999998         -1.9565754764372552E-004
 -0.10249999999999998         -2.0677857489122020E-004
 -0.10199999999999998         -2.1851423918735677E-004
 -0.10149999999999998         -2.3089529505268108E-004
 -0.10099999999999998         -2.4394571748924637E-004
 -0.10049999999999998         -2.5773939983655188E-004
  -9.9999999999999978E-002    -2.7222506279896239E-004
  -9.9499999999999977E-002    -2.8749074978141984E-004
  -9.8999999999999977E-002    -3.0356411656587423E-004
  -9.8499999999999976E-002    -3.2050323918187296E-004
  -9.7999999999999976E-002    -3.3829060103633907E-004
  -9.7499999999999976E-002    -3.5699303013454026E-004
  -9.6999999999999975E-002    -3.7674328835626326E-004
  -9.6499999999999975E-002    -3.9741760400377056E-004
  -9.5999999999999974E-002    -4.1921272347759139E-004
  -9.5500000000000002E-002    -4.4207898514857843E-004
  -9.5000000000000001E-002    -4.6614662596322480E-004
  -9.4500000000000001E-002    -4.9148086786253431E-004
  -9.4000000000000000E-002    -5.1810091291687075E-004
  -9.3500000000000000E-002    -5.4599098328497568E-004
  -9.2999999999999999E-002    -5.7537442851965403E-004
  -9.2499999999999999E-002    -6.0635097090511484E-004
  -9.1999999999999998E-002    -6.3899487509726282E-004
  -9.1499999999999998E-002    -6.7324298068450398E-004
  -9.0999999999999998E-002    -7.0930333842341917E-004
  -9.0499999999999997E-002    -7.4726657653636803E-004
  -8.9999999999999997E-002    -7.8726715698664409E-004
  -8.9499999999999996E-002    -8.2912297528261450E-004
  -8.8999999999999996E-002    -8.7318044128217994E-004
  -8.8499999999999995E-002    -9.1949830864622765E-004
  -8.7999999999999995E-002    -9.6801349722163452E-004
  -8.7499999999999994E-002    -1.0190039050367210E-003
  -8.6999999999999994E-002    -1.0724383623635929E-003
  -8.6499999999999994E-002    -1.1284345842761524E-003
  -8.5999999999999993E-002    -1.1873242855733068E-003
  -8.5499999999999993E-002    -1.2489299205444056E-003
  -8.4999999999999992E-002    -1.3134730849846048E-003
  -8.4499999999999992E-002    -1.3814350251122954E-003
  -8.3999999999999991E-002    -1.4526114317669958E-003
  -8.3499999999999991E-002    -1.5269225563565680E-003
  -8.2999999999999990E-002    -1.6049272739580922E-003
  -8.2499999999999990E-002    -1.6865792862563733E-003
  -8.1999999999999990E-002    -1.7722312923325973E-003
  -8.1499999999999989E-002    -1.8621153256494407E-003
  -8.0999999999999989E-002    -1.9560750161175993E-003
  -8.0499999999999988E-002    -2.0546248218238821E-003
  -7.9999999999999988E-002    -2.1581457345990112E-003
  -7.9499999999999987E-002    -2.2664432628952307E-003
  -7.8999999999999987E-002    -2.3801522337590754E-003
  -7.8499999999999986E-002    -2.4985337584898151E-003
  -7.7999999999999986E-002    -2.6230143418719681E-003
  -7.7499999999999986E-002    -2.7530783634229471E-003
  -7.6999999999999985E-002    -2.8898508177380607E-003
  -7.6499999999999985E-002    -3.0326565234933536E-003
  -7.5999999999999984E-002    -3.1816569373569036E-003
  -7.5499999999999984E-002    -3.3376303751413124E-003
  -7.4999999999999983E-002    -3.5008435280021290E-003
  -7.4499999999999983E-002    -3.6711498399955621E-003
  -7.3999999999999982E-002    -3.8494707673531053E-003
  -7.3499999999999982E-002    -4.0355189142965847E-003
  -7.2999999999999982E-002    -4.2309430276463549E-003
  -7.2499999999999981E-002    -4.4339335997080741E-003
  -7.1999999999999981E-002    -4.6457580034725259E-003
  -7.1499999999999980E-002    -4.8677898597245511E-003
  -7.0999999999999980E-002    -5.1007799878753611E-003
  -7.0499999999999979E-002    -5.3431212572893020E-003
  -6.9999999999999979E-002    -5.5955143712950479E-003
  -6.9499999999999978E-002    -5.8593441412676823E-003
  -6.8999999999999978E-002    -6.1351387625456465E-003
  -6.8499999999999978E-002    -6.4232618776300533E-003
  -6.7999999999999977E-002    -6.7240812796026898E-003
  -6.7499999999999977E-002    -7.0368652902100728E-003
  -6.6999999999999976E-002    -7.3629868799208638E-003
  -6.6499999999999976E-002    -7.7040824900966726E-003
  -6.5999999999999975E-002    -8.0600974758333506E-003
  -6.5499999999999975E-002    -8.4313216470635471E-003
  -6.4999999999999974E-002    -8.8176417745488116E-003
  -6.4499999999999974E-002    -9.2223827458781070E-003
  -6.4000000000000001E-002    -9.6423812066976609E-003
  -6.3500000000000001E-002    -1.0081860583358644E-002
  -6.3000000000000000E-002    -1.0539077208720157E-002
  -6.2500000000000000E-002    -1.1015440568188498E-002
  -6.2000000000000000E-002    -1.1510027541551435E-002
  -6.1499999999999999E-002    -1.2026792085328787E-002
  -6.0999999999999999E-002    -1.2563919978376754E-002
  -6.0499999999999998E-002    -1.3120414161373960E-002
  -5.9999999999999998E-002    -1.3704525689990792E-002
  -5.9499999999999997E-002    -1.4310028063512996E-002
  -5.8999999999999997E-002    -1.4941515593070775E-002
  -5.8499999999999996E-002    -1.5598528682967974E-002
  -5.7999999999999996E-002    -1.6278091840143866E-002
  -5.7499999999999996E-002    -1.6987933747693723E-002
  -5.6999999999999995E-002    -1.7724816316381460E-002
  -5.6499999999999995E-002    -1.8492303916813967E-002
  -5.5999999999999994E-002    -1.9287014961338278E-002
  -5.5499999999999994E-002    -2.0118262046602643E-002
  -5.4999999999999993E-002    -2.0984847698904047E-002
  -5.4499999999999993E-002    -2.1880921622754783E-002
  -5.3999999999999992E-002    -2.2809367876181180E-002
  -5.3499999999999992E-002    -2.3779883555166824E-002
  -5.2999999999999992E-002    -2.4786212307967480E-002
  -5.2499999999999991E-002    -2.5830990224498709E-002
  -5.1999999999999991E-002    -2.6914229124618771E-002
  -5.1499999999999990E-002    -2.8032510327164153E-002
  -5.0999999999999990E-002    -2.9195799988294649E-002
  -5.0499999999999989E-002    -3.0408087989653776E-002
  -4.9999999999999989E-002    -3.1662533083996316E-002
  -4.9499999999999988E-002    -3.2962585453029727E-002
  -4.8999999999999988E-002    -3.4313066380394108E-002
  -4.8499999999999988E-002    -3.5723721253621069E-002
  -4.7999999999999987E-002    -3.7181171286980397E-002
  -4.7499999999999987E-002    -3.8681674187747067E-002
  -4.6999999999999986E-002    -4.0237358955683727E-002
  -4.6499999999999986E-002    -4.1862579476911119E-002
  -4.5999999999999985E-002    -4.3536980009743556E-002
  -4.5499999999999985E-002    -4.5276966357541581E-002
  -4.4999999999999984E-002    -4.7084414477456121E-002
  -4.4499999999999984E-002    -4.8951665869143582E-002
  -4.3999999999999984E-002    -5.0891221037416931E-002
  -4.3499999999999983E-002    -5.2902696484587425E-002
  -4.2999999999999983E-002    -5.4965731268553877E-002
  -4.2499999999999982E-002    -5.7102683536960769E-002
  -4.1999999999999982E-002    -5.9319125011552426E-002
  -4.1499999999999981E-002    -6.1617071131708223E-002
  -4.0999999999999981E-002    -6.3984893179180713E-002
  -4.0499999999999980E-002    -6.6435952906856860E-002
  -3.9999999999999980E-002    -6.8977240119536987E-002
  -3.9499999999999980E-002    -7.1600029087054040E-002
  -3.8999999999999979E-002    -7.4321762984572354E-002
  -3.8499999999999979E-002    -7.7116204236395591E-002
  -3.7999999999999978E-002    -8.0021121613749940E-002
  -3.7499999999999978E-002    -8.3003333309711935E-002
  -3.6999999999999977E-002    -8.6091123108579304E-002
  -3.6499999999999977E-002    -8.9295056510645537E-002
  -3.5999999999999976E-002    -9.2589860848433375E-002
  -3.5499999999999976E-002    -9.5967624083384995E-002
  -3.4999999999999976E-002    -9.9480324976036094E-002
  -3.4499999999999975E-002   -0.10309347675090427     
  -3.3999999999999975E-002   -0.10680973729405227     
  -3.3499999999999974E-002   -0.11067991054122006     
  -3.2999999999999974E-002   -0.11465879844634413     
  -3.2499999999999973E-002   -0.11879575794160468     
  -3.1999999999999973E-002   -0.12301446136132993     
  -3.1500000000000000E-002   -0.12738027251247641     
  -3.1000000000000000E-002   -0.13190051322152635     
  -3.0499999999999999E-002   -0.13654231229312425     
  -2.9999999999999999E-002   -0.14133692447779761     
  -2.9499999999999998E-002   -0.14624014653299838     
  -2.8999999999999998E-002   -0.15129672941123806     
  -2.8499999999999998E-002   -0.15655329000864199     
  -2.7999999999999997E-002   -0.16189384173461613     
  -2.7499999999999997E-002   -0.16745337138807520     
  -2.6999999999999996E-002   -0.17314573003794825     
  -2.6499999999999996E-002   -0.17901141953028576     
  -2.5999999999999995E-002   -0.18508073096783706     
  -2.5499999999999995E-002   -0.19126443301436602     
  -2.4999999999999994E-002   -0.19762978263611986     
  -2.4499999999999994E-002   -0.20415054139463296     
  -2.3999999999999994E-002   -0.21088129263394662     
  -2.3499999999999993E-002   -0.21787541407911060     
  -2.2999999999999993E-002   -0.22497742187615233     
  -2.2499999999999992E-002   -0.23230317354757291     
  -2.1999999999999992E-002   -0.23984476512301456     
  -2.1499999999999991E-002   -0.24751956139689169     
  -2.0999999999999991E-002   -0.25544373588712099     
  -2.0499999999999990E-002   -0.26354999770402887     
  -1.9999999999999990E-002   -0.27195816874301371     
  -1.9499999999999990E-002   -0.28049225837104097     
  -1.8999999999999989E-002   -0.28924558325721117     
  -1.8499999999999989E-002   -0.29821578559114448     
  -1.7999999999999988E-002   -0.30744394997925251     
  -1.7499999999999988E-002   -0.31696385009560057     
  -1.6999999999999987E-002   -0.32658074647315960     
  -1.6499999999999987E-002   -0.33639893668175791     
  -1.5999999999999986E-002   -0.34649028754757039     
  -1.5499999999999986E-002   -0.35702710290142048     
  -1.4999999999999986E-002   -0.36769665614226388     
  -1.4499999999999985E-002   -0.37859063961671979     
  -1.3999999999999985E-002   -0.38979744885657985     
  -1.3499999999999984E-002   -0.40150849583447190     
  -1.2999999999999984E-002   -0.41325881313117985     
  -1.2499999999999983E-002   -0.42547722342866279     
  -1.1999999999999983E-002   -0.43785147507330535     
  -1.1499999999999982E-002   -0.45041317223065258     
  -1.0999999999999982E-002   -0.46323971434006594     
  -1.0499999999999982E-002   -0.47650573619200642     
  -9.9999999999999811E-003   -0.48976874138534399     
  -9.4999999999999807E-003   -0.50353628276102658     
  -8.9999999999999802E-003   -0.51754687887430095     
  -8.4999999999999798E-003   -0.53173092136025146     
  -7.9999999999999793E-003   -0.54639839842833893     
  -7.4999999999999789E-003   -0.56110738188137521     
  -6.9999999999999785E-003   -0.57622617017729172     
  -6.4999999999999780E-003   -0.59175614035116486     
  -5.9999999999999776E-003   -0.60772607109887145     
  -5.4999999999999771E-003   -0.62368572318602400     
  -4.9999999999999767E-003   -0.63982125589242522     
  -4.4999999999999762E-003   -0.65669871998364271     
  -3.9999999999999758E-003   -0.67356382062698272     
  -3.4999999999999754E-003   -0.69079132991710912     
  -2.9999999999999749E-003   -0.70856832423106142     
  -2.4999999999999745E-003   -0.72636811386811528     
  -1.9999999999999740E-003   -0.74482995941849728     
  -1.4999999999999736E-003   -0.76321624055079251     
  -9.9999999999997313E-004   -0.78245627104577054     
  -4.9999999999997269E-004   -0.80170978103666979     
   0.0000000000000000        -0.82179004012363865     
   5.0000000000000044E-004   -0.84150632127799252     
   1.0000000000000009E-003   -0.86211610906028646     
   1.5000000000000013E-003   -0.88244788873223001     
   2.0000000000000018E-003   -0.90316534688830608     
   2.5000000000000022E-003   -0.92464001154061926     
   3.0000000000000027E-003   -0.94641285841482903     
   3.5000000000000031E-003   -0.96862067225151049     
   4.0000000000000036E-003   -0.99112842748832719     
   4.5000000000000040E-003    -1.0136363761972045     
   5.0000000000000044E-003    -1.0368119841469694     
   5.5000000000000049E-003    -1.0602953490934066     
   6.0000000000000053E-003    -1.0836463897936528     
   6.5000000000000058E-003    -1.1072914888351884     
   7.0000000000000062E-003    -1.1312324978701822     
   7.5000000000000067E-003    -1.1554347357412156     
   8.0000000000000071E-003    -1.1804135299731549     
   8.5000000000000075E-003    -1.2049254362682644     
   9.0000000000000080E-003    -1.2301512079992856     
   9.5000000000000084E-003    -1.2554488627070430     
   1.0000000000000009E-002    -1.2813365260287339     
   1.0500000000000009E-002    -1.3074788819262717     
   1.1000000000000010E-002    -1.3337655610705745     
   1.1500000000000010E-002    -1.3597008971369031     
   1.2000000000000011E-002    -1.3860901456965027     
   1.2500000000000011E-002    -1.4120283408133307     
   1.3000000000000012E-002    -1.4382150602754669     
   1.3500000000000012E-002    -1.4653928313345652     
   1.4000000000000012E-002    -1.4917817183227449     
   1.4500000000000013E-002    -1.5189205064378668     
   1.5000000000000013E-002    -1.5466837030829197     
   1.5500000000000014E-002    -1.5741694093107466     
   1.6000000000000014E-002    -1.6029377482014429     
   1.6500000000000015E-002    -1.6306042725707766     
   1.7000000000000015E-002    -1.6593606122859748     
   1.7500000000000016E-002    -1.6878918485454832     
   1.8000000000000016E-002    -1.7169113497508794     
   1.8500000000000016E-002    -1.7462131668284266     
   1.9000000000000017E-002    -1.7749328226944407     
   1.9500000000000017E-002    -1.8052366704830485     
   2.0000000000000018E-002    -1.8336052977340955     
   2.0500000000000018E-002    -1.8625454947175117     
   2.1000000000000019E-002    -1.8910373494404880     
   2.1500000000000019E-002    -1.9198022513353075     
   2.2000000000000020E-002    -1.9479145049595705     
   2.2500000000000020E-002    -1.9764480707527983     
   2.3000000000000020E-002    -2.0048199062125116     
   2.3500000000000021E-002    -2.0324973996502149     
   2.4000000000000021E-002    -2.0609296569399831     
   2.4500000000000022E-002    -2.0896630431257086     
   2.5000000000000022E-002    -2.1153799557116955     
   2.5500000000000023E-002    -2.1434617579341011     
   2.6000000000000023E-002    -2.1708566107720859     
   2.6500000000000024E-002    -2.1981638406238027     
   2.7000000000000024E-002    -2.2259124046975489     
   2.7500000000000024E-002    -2.2528547432727120     
   2.8000000000000025E-002    -2.2801648943462234     
   2.8500000000000025E-002    -2.3052594838323444     
   2.9000000000000026E-002    -2.3290613538731466     
   2.9500000000000026E-002    -2.3545132591070947     
   3.0000000000000027E-002    -2.3786163683291712     
   3.0500000000000027E-002    -2.4034753597157108     
   3.1000000000000028E-002    -2.4267174590216203     
   3.1500000000000028E-002    -2.4501157479281845     
   3.2000000000000028E-002    -2.4725529205433765     