 -0.23999999999999999          0.0000000000000000     
 -0.23949999999999999          0.0000000000000000     
 -0.23899999999999999          0.0000000000000000     
 -0.23849999999999999          0.0000000000000000     
 -0.23799999999999999         -1.7302572851915453E-019
 -0.23749999999999999         -1.7462845204079429E-018
 -0.23699999999999999         -9.2781035951843611E-018
 -0.23649999999999999         -3.4537963002407625E-017
 -0.23599999999999999         -1.0092013000550925E-016
 -0.23549999999999999         -2.4555167625314017E-016
 -0.23499999999999999         -5.1478032182449051E-016
 -0.23449999999999999         -9.4859533417744263E-016
 -0.23399999999999999         -1.5516471853121913E-015
 -0.23349999999999999         -2.2531642272950856E-015
 -0.23299999999999998         -2.8645299434865270E-015
 -0.23249999999999998         -3.0498583461309391E-015
 -0.23199999999999998         -2.3291388560836117E-015
 -0.23149999999999998         -1.3290957057355860E-016
 -0.23099999999999998          4.0797815197080031E-015
 -0.23049999999999998          1.0642304778248815E-014
 -0.22999999999999998          1.9461306668155523E-014
 -0.22949999999999998          2.9798441204366250E-014
 -0.22899999999999998          4.0109817458785568E-014
 -0.22849999999999998          4.8006577042948711E-014
 -0.22799999999999998          5.0393118867835961E-014
 -0.22749999999999998          4.3817725481339557E-014
 -0.22699999999999998          2.5034886141571767E-014
 -0.22649999999999998         -8.2651371577018626E-015
 -0.22599999999999998         -5.6649260385106317E-014
 -0.22549999999999998         -1.1818456205101078E-013
 -0.22499999999999998         -1.8788144055979564E-013
 -0.22449999999999998         -2.5748805075765486E-013
 -0.22399999999999998         -3.1576423091830086E-013
 -0.22349999999999998         -3.4931634372471493E-013
 -0.22299999999999998         -3.4400737917586983E-013
 -0.22249999999999998         -2.8687674824907011E-013
 -0.22199999999999998         -1.6841793392980752E-013
 -0.22150000000000000          1.5021801974195766E-014
 -0.22100000000000000          2.5902532838925723E-013
 -0.22050000000000000          5.4942963045574465E-013
 -0.22000000000000000          8.6156112331286382E-013
 -0.21950000000000000          1.1607279654099629E-012
 -0.21900000000000000          1.4042314406497147E-012
 -0.21850000000000000          1.5450189522689136E-012
 -0.21800000000000000          1.5368974957687719E-012
 -0.21750000000000000          1.3409748581596125E-012
 -0.21700000000000000          9.3272090248298113E-013
 -0.21650000000000000          3.0877773386080125E-013
 -0.21600000000000000         -5.0754348940655212E-013
 -0.21550000000000000         -1.4632201614510570E-012
 -0.21500000000000000         -2.4759666058812482E-012
 -0.21450000000000000         -3.4389122654966476E-012
 -0.21400000000000000         -4.2297349445568204E-012
 -0.21350000000000000         -4.7238118335593419E-012
 -0.21299999999999999         -4.8101981030431768E-012
 -0.21249999999999999         -4.4085383313542588E-012
 -0.21199999999999999         -3.4844902918272564E-012
 -0.21149999999999999         -2.0610371109476771E-012
 -0.21099999999999999         -2.2328602425052921E-013
 -0.21049999999999999          1.8849734538670510E-012
 -0.20999999999999999          4.0735755822900804E-012
 -0.20949999999999999          6.1263732390120859E-012
 -0.20899999999999999          7.8274829703809190E-012
 -0.20849999999999999          8.9898391453246640E-012
 -0.20799999999999999          9.4816880475589895E-012
 -0.20749999999999999          9.2464608388688610E-012
 -0.20699999999999999          8.3121127925892435E-012
 -0.20649999999999999          6.7873953620446355E-012
 -0.20599999999999999          4.8446074536107678E-012
 -0.20549999999999999          2.6906924740578905E-012
 -0.20499999999999999          5.3088412573412301E-013
 -0.20449999999999999         -1.4691343585662795E-012
 -0.20399999999999999         -3.2156897417371744E-012
 -0.20349999999999999         -4.7075745989165046E-012
 -0.20299999999999999         -6.0393730694870271E-012
 -0.20249999999999999         -7.3850957573544169E-012
 -0.20199999999999999         -8.9628544983987824E-012
 -0.20149999999999998         -1.0984791681905548E-011
 -0.20099999999999998         -1.3599551828281722E-011
 -0.20049999999999998         -1.6836673837923649E-011
 -0.19999999999999998         -2.0562885772700594E-011
 -0.19949999999999998         -2.4459312598691435E-011
 -0.19899999999999998         -2.8025885816217447E-011
 -0.19849999999999998         -3.0615440108475817E-011
 -0.19799999999999998         -3.1495377202741873E-011
 -0.19749999999999998         -2.9930331335445970E-011
 -0.19699999999999998         -2.5275681319839979E-011
 -0.19649999999999998         -1.7069573992076772E-011
 -0.19600000000000001         -5.1110852543639305E-012
 -0.19550000000000001          1.0486238732190933E-011
 -0.19500000000000001          2.9272471172543263E-011
 -0.19450000000000001          5.0473389489606543E-011
 -0.19400000000000001          7.3033796184049288E-011
 -0.19350000000000001          9.5684675716148537E-011
 -0.19300000000000000          1.1702355733753248E-010
 -0.19250000000000000          1.3559613732606567E-010
 -0.19200000000000000          1.4996820011688868E-010
 -0.19150000000000000          1.5877970596704690E-010
 -0.19100000000000000          1.6077792667474295E-010
 -0.19050000000000000          1.5483160893337791E-010
 -0.19000000000000000          1.3993378047732689E-010
 -0.18950000000000000          1.1520469426438198E-010
 -0.18900000000000000          7.9908983872236597E-011
 -0.18850000000000000          3.3500042782059434E-011
 -0.18800000000000000         -2.4298049363130241E-011
 -0.18750000000000000         -9.3366565184888513E-011
 -0.18700000000000000         -1.7302910596656397E-010
 -0.18650000000000000         -2.6186078421038522E-010
 -0.18600000000000000         -3.5748859381141655E-010
 -0.18550000000000000         -4.5640850021638716E-010
 -0.18500000000000000         -5.5384780226723198E-010
 -0.18450000000000000         -6.4370270074157837E-010
 -0.18400000000000000         -7.1857651476374657E-010
 -0.18350000000000000         -7.6993746837737442E-010
 -0.18300000000000000         -7.8840589831841513E-010
 -0.18250000000000000         -7.6416751033565803E-010
 -0.18200000000000000         -6.8749746809087547E-010
 -0.18149999999999999         -5.4936827795850742E-010
 -0.18099999999999999         -3.4210419461101879E-010
 -0.18049999999999999         -6.0037178796224302E-011
 -0.17999999999999999          2.9988274276129619E-010
 -0.17949999999999999          7.3756952831237334E-010
 -0.17899999999999999          1.2494174698770236E-009
 -0.17849999999999999          1.8280837060583999E-009
 -0.17799999999999999          2.4624589915871082E-009
 -0.17749999999999999          3.1378331308174635E-009
 -0.17699999999999999          3.8362507631836494E-009
 -0.17649999999999999          4.5370386346039646E-009
 -0.17599999999999999          5.2174736254035654E-009
 -0.17549999999999999          5.8535589884464333E-009
 -0.17499999999999999          6.4208690877378131E-009
 -0.17449999999999999          6.8954173177194649E-009
 -0.17399999999999999          7.2545193935486101E-009
 -0.17349999999999999          7.4776105697861503E-009
 -0.17299999999999999          7.5470020948214494E-009
 -0.17249999999999999          7.4485669202227382E-009
 -0.17199999999999999          7.1723183332194942E-009
 -0.17149999999999999          6.7129129991887780E-009
 -0.17099999999999999          6.0700455837507536E-009
 -0.17049999999999998          5.2487612403282109E-009
 -0.16999999999999998          4.2596547772567672E-009
 -0.16949999999999998          3.1189780782549579E-009
 -0.16899999999999998          1.8486073172434909E-009
 -0.16849999999999998          4.7588176964176321E-010
 -0.16799999999999998         -9.6670042577710735E-010
 -0.16749999999999998         -2.4419738499205877E-009
 -0.16699999999999998         -3.9087818807943423E-009
 -0.16649999999999998         -5.3228358596080028E-009
 -0.16599999999999998         -6.6377692685078085E-009
 -0.16549999999999998         -7.8063245367158605E-009
 -0.16499999999999998         -8.7816687280323874E-009
 -0.16449999999999998         -9.5187821315200968E-009
 -0.16399999999999998         -9.9758427970145023E-009
 -0.16349999999999998         -1.0115506091933466E-008
 -0.16299999999999998         -9.9060630144548618E-009
 -0.16249999999999998         -9.3223410605554775E-009
 -0.16199999999999998         -8.3463260577830727E-009
 -0.16149999999999998         -6.9674641202005888E-009
 -0.16099999999999998         -5.1826126831567347E-009
 -0.16049999999999998         -2.9956579026524946E-009
 -0.15999999999999998         -4.1683326504810972E-010
 -0.15949999999999998          2.5382173085065260E-009
 -0.15899999999999997          5.8495246893036565E-009
 -0.15849999999999997          9.4939934145268269E-009
 -0.15799999999999997          1.3446632605364061E-008
 -0.15749999999999997          1.7681700752460008E-008
 -0.15699999999999997          2.2173713087743258E-008
 -0.15649999999999997          2.6898383667237280E-008
 -0.15599999999999997          3.1833365633258287E-008
 -0.15549999999999997          3.6958868591366248E-008
 -0.15499999999999997          4.2258178784821386E-008
 -0.15449999999999997          4.7718210507268019E-008
 -0.15399999999999997          5.3329895940860512E-008
 -0.15349999999999997          5.9088723951840657E-008
 -0.15299999999999997          6.4995304502452187E-008
 -0.15249999999999997          7.1056053689244822E-008
 -0.15200000000000000          7.7283934746394545E-008
 -0.15150000000000000          8.3698892377878728E-008
 -0.15100000000000000          9.0328418176262151E-008
 -0.15049999999999999          9.7207909479168332E-008
 -0.14999999999999999          1.0438071612627619E-007
 -0.14949999999999999          1.1189776655150134E-007
 -0.14899999999999999          1.1981698568313312E-007
 -0.14849999999999999          1.2820191445576403E-007
 -0.14799999999999999          1.3712039500082176E-007
 -0.14749999999999999          1.4664284520652571E-007
 -0.14699999999999999          1.5684009818841113E-007
 -0.14649999999999999          1.6778157745141582E-007
 -0.14599999999999999          1.7953321659695212E-007
 -0.14549999999999999          1.9215611298273689E-007
 -0.14499999999999999          2.0570543374620994E-007
 -0.14449999999999999          2.2022975397919191E-007
 -0.14399999999999999          2.3577108465833702E-007
 -0.14349999999999999          2.5236595258775474E-007
 -0.14299999999999999          2.7004695627162233E-007
 -0.14249999999999999          2.8884438034946159E-007
 -0.14199999999999999          3.0878904526819814E-007
 -0.14149999999999999          3.2991506620853245E-007
 -0.14099999999999999          3.5226235013281694E-007
 -0.14049999999999999          3.7587944266196942E-007
 -0.13999999999999999          4.0082594475519152E-007
 -0.13949999999999999          4.2717482267702645E-007
 -0.13899999999999998          4.5501389768701317E-007
 -0.13849999999999998          4.8444664744679314E-007
 -0.13799999999999998          5.1559180324111037E-007
 -0.13749999999999998          5.4858431679652087E-007
 -0.13699999999999998          5.8357462499265810E-007
 -0.13649999999999998          6.2072672448158884E-007
 -0.13599999999999998          6.6021788865437936E-007
 -0.13550000000000001          7.0223690795263019E-007
 -0.13500000000000001          7.4698309007991753E-007
 -0.13450000000000001          7.9466512940253983E-007
 -0.13400000000000001          8.4549934168184377E-007
 -0.13350000000000001          8.9970930671740083E-007
 -0.13300000000000001          9.5752600963835193E-007
 -0.13250000000000001          1.0191865836441964E-006
 -0.13200000000000001          1.0849354923300498E-006
 -0.13150000000000001          1.1550253281153582E-006
 -0.13100000000000001          1.2297148895461336E-006
 -0.13050000000000000          1.3092718963073063E-006
 -0.13000000000000000          1.3939748943928561E-006
 -0.12950000000000000          1.4841126088657967E-006
 -0.12900000000000000          1.5799873393932842E-006
 -0.12850000000000000          1.6819182708549084E-006
 -0.12800000000000000          1.7902406159624605E-006
 -0.12750000000000000          1.9053079884932952E-006
 -0.12700000000000000          2.0274984706095294E-006
 -0.12650000000000000          2.1572149649544832E-006
 -0.12600000000000000          2.2948888987738544E-006
 -0.12550000000000000          2.4409804972237436E-006
 -0.12499999999999999          2.5959828361121728E-006
 -0.12449999999999999          2.7604239996312583E-006
 -0.12399999999999999          2.9348636382574066E-006
 -0.12349999999999998          3.1199002424379527E-006
 -0.12299999999999998          3.3161692559092565E-006
 -0.12249999999999998          3.5243414051643837E-006
 -0.12199999999999998          3.7451268676095055E-006
 -0.12149999999999998          3.9792727227821969E-006
 -0.12099999999999998          4.2275607960553321E-006
 -0.12049999999999998          4.4908174447145363E-006
 -0.12000000000000000          4.7699101766032318E-006
 -0.11950000000000000          5.0657503625332775E-006
 -0.11899999999999999          5.3792975991368354E-006
 -0.11849999999999999          5.7115644055356323E-006
 -0.11799999999999999          6.0636217173118976E-006
 -0.11749999999999999          6.4365973052499173E-006
 -0.11699999999999999          6.8316908712890404E-006
 -0.11649999999999999          7.2501661221507754E-006
 -0.11599999999999999          7.6933708401284475E-006
 -0.11549999999999999          8.1627260356047319E-006
 -0.11499999999999999          8.6597299932614902E-006
 -0.11449999999999999          9.1859665837366182E-006
 -0.11399999999999999          9.7431070278898023E-006
 -0.11349999999999999          1.0332909793555555E-005
 -0.11299999999999999          1.0957210902727508E-005
 -0.11249999999999999          1.1617940621513897E-005
 -0.11199999999999999          1.2317127056048160E-005
 -0.11149999999999999          1.3056877921849627E-005
 -0.11099999999999999          1.3839405039823261E-005
 -0.11049999999999999          1.4667032518096081E-005
 -0.10999999999999999          1.5542185799044229E-005
 -0.10949999999999999          1.6467428492384634E-005
 -0.10899999999999999          1.7445465825566234E-005
 -0.10849999999999999          1.8479133343172032E-005
 -0.10799999999999998          1.9571412546071699E-005
 -0.10749999999999998          2.0725456119669434E-005
 -0.10699999999999998          2.1944607821841272E-005
 -0.10649999999999998          2.3232402799660170E-005
 -0.10599999999999998          2.4592566633158727E-005
 -0.10549999999999998          2.6029025562525625E-005
 -0.10499999999999998          2.7545933671546735E-005
 -0.10449999999999998          2.9147666359086224E-005
 -0.10399999999999998          3.0838809916719593E-005
 -0.10349999999999998          3.2624209134242697E-005
 -0.10299999999999998          3.4508930800625516E-005
 -0.10249999999999998          3.6498313721788980E-005
 -0.10199999999999998          3.8597936624503037E-005
 -0.10149999999999998          4.0813606113222923E-005
 -0.10099999999999998          4.3151433181039149E-005
 -0.10049999999999998          4.5617812815343454E-005
  -9.9999999999999978E-002     4.8219430355077556E-005
  -9.9499999999999977E-002     5.0963298004353832E-005
  -9.8999999999999977E-002     5.3856770762789998E-005
  -9.8499999999999976E-002     5.6907519629569227E-005
  -9.7999999999999976E-002     6.0123612795762654E-005
  -9.7499999999999976E-002     6.3513486036253819E-005
  -9.6999999999999975E-002     6.7085974203081946E-005
  -9.6499999999999975E-002     7.0850430633297861E-005
  -9.5999999999999974E-002     7.4816563081503269E-005
  -9.5500000000000002E-002     7.8994656093660964E-005
  -9.5000000000000001E-002     8.3395487721195594E-005
  -9.4500000000000001E-002     8.8030375888069432E-005
  -9.4000000000000000E-002     9.2911169353513206E-005
  -9.3500000000000000E-002     9.8050262148144146E-005
  -9.2999999999999999E-002     1.0346063181075565E-004
  -9.2499999999999999E-002     1.0915591987196210E-004
  -9.1999999999999998E-002     1.1515042811841421E-004
  -9.1499999999999998E-002     1.2145913768905409E-004
  -9.0999999999999998E-002     1.2809766850702874E-004
  -9.0499999999999997E-002     1.3508236698407601E-004
  -8.9999999999999997E-002     1.4243037010998653E-004
  -8.9499999999999996E-002     1.5015958479876022E-004
  -8.8999999999999996E-002     1.5828858843587931E-004
  -8.8499999999999995E-002     1.6683688625106682E-004
  -8.7999999999999995E-002     1.7582496097594667E-004
  -8.7499999999999994E-002     1.8527408304632730E-004
  -8.6999999999999994E-002     1.9520646552576644E-004
  -8.6499999999999994E-002     2.0564552503023789E-004
  -8.5999999999999993E-002     2.1661547268984188E-004
  -8.5499999999999993E-002     2.2814158764314482E-004
  -8.4999999999999992E-002     2.4025053378528194E-004
  -8.4499999999999992E-002     2.5297001583599456E-004
  -8.3999999999999991E-002     2.6632911542907807E-004
  -8.3499999999999991E-002     2.8035819342847091E-004
  -8.2999999999999990E-002     2.9508875768431643E-004
  -8.2499999999999990E-002     3.1055365968685059E-004
  -8.1999999999999990E-002     3.2678729547842573E-004
  -8.1499999999999989E-002     3.4382571159763669E-004
  -8.0999999999999989E-002     3.6170643118974889E-004
  -8.0499999999999988E-002     3.8046876891438108E-004
  -7.9999999999999988E-002     4.0015338662490732E-004
  -7.9499999999999987E-002     4.2080284165428865E-004
  -7.8999999999999987E-002     4.4246164284647050E-004
  -7.8499999999999986E-002     4.6517568723110640E-004
  -7.7999999999999986E-002     4.8899295581501128E-004
  -7.7499999999999986E-002     5.1396362205160715E-004
  -7.6999999999999985E-002     5.4013980474764138E-004
  -7.6499999999999985E-002     5.6757579183954138E-004
  -7.5999999999999984E-002     5.9632854932873151E-004
  -7.5499999999999984E-002     6.2645686524558444E-004
  -7.4999999999999983E-002     6.5802246196039298E-004
  -7.4499999999999983E-002     6.9108901624013834E-004
  -7.3999999999999982E-002     7.2572291187706218E-004
  -7.3499999999999982E-002     7.6199356280327543E-004
  -7.2999999999999982E-002     7.9997309487407002E-004
  -7.2499999999999981E-002     8.3973637419352295E-004
  -7.1999999999999981E-002     8.8136129379816266E-004
  -7.1499999999999980E-002     9.2492917030090999E-004
  -7.0999999999999980E-002     9.7052483712352692E-004
  -7.0499999999999979E-002     1.0182360202367180E-003
  -6.9999999999999979E-002     1.0681538076123610E-003
  -6.9499999999999978E-002     1.1203726034729506E-003
  -6.8999999999999978E-002     1.1749917976640600E-003
  -6.8499999999999978E-002     1.2321136415573129E-003
  -6.7999999999999977E-002     1.2918435389256740E-003
  -6.7499999999999977E-002     1.3542916842965236E-003
  -6.6999999999999976E-002     1.4195725569203532E-003
  -6.6499999999999976E-002     1.4878043591056342E-003
  -6.5999999999999975E-002     1.5591102645367946E-003
  -6.5499999999999975E-002     1.6336187950012548E-003
  -6.4999999999999974E-002     1.7114612722273722E-003
  -6.4499999999999974E-002     1.7927779775700971E-003
  -6.4000000000000001E-002     1.8777107221536853E-003
  -6.3500000000000001E-002     1.9664077131140711E-003
  -6.3000000000000000E-002     2.0590223131180395E-003
  -6.2500000000000000E-002     2.1557131187792365E-003
  -6.2000000000000000E-002     2.2566447491087493E-003
  -6.1499999999999999E-002     2.3619878242189000E-003
  -6.0999999999999999E-002     2.4719194863643545E-003
  -6.0499999999999998E-002     2.5866232896283852E-003
  -5.9999999999999998E-002     2.7062904221990692E-003
  -5.9499999999999997E-002     2.8311185984679563E-003
  -5.8999999999999997E-002     2.9613097879294149E-003
  -5.8499999999999996E-002     3.0970740324602316E-003
  -5.7999999999999996E-002     3.2386298619321279E-003
  -5.7499999999999996E-002     3.3862037108510984E-003
  -5.6999999999999995E-002     3.5400283215145127E-003
  -5.6499999999999995E-002     3.7003470503959640E-003
  -5.5999999999999994E-002     3.8674087618051443E-003
  -5.5499999999999994E-002     4.0414697485374237E-003
  -5.4999999999999993E-002     4.2227989620206314E-003
  -5.4499999999999993E-002     4.4116710577427228E-003
  -5.3999999999999992E-002     4.6083691427352344E-003
  -5.3499999999999992E-002     4.8131875684120778E-003
  -5.2999999999999992E-002     5.0264291140892751E-003
  -5.2499999999999991E-002     5.2484074800028049E-003
  -5.1999999999999991E-002     5.4794476256383763E-003
  -5.1499999999999990E-002     5.7198823609609199E-003
  -5.0999999999999990E-002     5.9700586202437872E-003
  -5.0499999999999989E-002     6.2303304863948732E-003
  -4.9999999999999989E-002     6.5010644718209252E-003
  -4.9499999999999988E-002     6.7826422580963136E-003
  -4.8999999999999988E-002     7.0754541041634974E-003
  -4.8499999999999988E-002     7.3798982989186079E-003
  -4.7999999999999987E-002     7.6963921146765771E-003
  -4.7499999999999987E-002     8.0253635393298245E-003
  -4.6999999999999986E-002     8.3672472421355490E-003
  -4.6499999999999986E-002     8.7224975440022764E-003
  -4.5999999999999985E-002     9.0915872216152070E-003
  -4.5499999999999985E-002     9.4749945435446681E-003
  -4.4999999999999984E-002     9.8732164084193649E-003
  -4.4499999999999984E-002     1.0286764728476436E-002
  -4.3999999999999984E-002     1.0716158393263779E-002
  -4.3499999999999983E-002     1.1161942612724393E-002
  -4.2999999999999983E-002     1.1624667481842210E-002
  -4.2499999999999982E-002     1.2104903086852203E-002
  -4.1999999999999982E-002     1.2603231584596121E-002
  -4.1499999999999981E-002     1.3120257256064680E-002
  -4.0999999999999981E-002     1.3656603357906721E-002
  -4.0499999999999980E-002     1.4212901023445697E-002
  -3.9999999999999980E-002     1.4789800200437055E-002
  -3.9499999999999980E-002     1.5387970235916142E-002
  -3.8999999999999979E-002     1.6008100657741449E-002
  -3.8499999999999979E-002     1.6650891938572880E-002
  -3.7999999999999978E-002     1.7317056554937788E-002
  -3.7499999999999978E-002     1.8007350064505531E-002
  -3.6999999999999977E-002     1.8722538671351006E-002
  -3.6499999999999977E-002     1.9463404061065448E-002
  -3.5999999999999976E-002     2.0230742674437550E-002
  -3.5499999999999976E-002     2.1025374592473986E-002
  -3.4999999999999976E-002     2.1848144985537735E-002
  -3.4499999999999975E-002     2.2699919552689046E-002
  -3.3999999999999975E-002     2.3581585900314131E-002
  -3.3499999999999974E-002     2.4494046560524611E-002
  -3.2999999999999974E-002     2.5438225725037587E-002
  -3.2499999999999973E-002     2.6415052775825135E-002
  -3.1999999999999973E-002     2.7425489399402481E-002
  -3.1500000000000000E-002     2.8470530056847076E-002
  -3.1000000000000000E-002     2.9551184195740654E-002
  -3.0499999999999999E-002     3.0668492924636248E-002
  -2.9999999999999999E-002     3.1823507762217984E-002
  -2.9499999999999998E-002     3.3017312948991628E-002
  -2.8999999999999998E-002     3.4251003953216688E-002
  -2.8499999999999998E-002     3.5525722613376068E-002
  -2.7999999999999997E-002     3.6842607529253266E-002
  -2.7499999999999997E-002     3.8202825226242396E-002
  -2.6999999999999996E-002     3.9607570593420807E-002
  -2.6499999999999996E-002     4.1058069721587862E-002
  -2.5999999999999995E-002     4.2555570682561675E-002
  -2.5499999999999995E-002     4.4101322391340042E-002
  -2.4999999999999994E-002     4.5696589305780230E-002
  -2.4499999999999994E-002     4.7342719554661891E-002
  -2.3999999999999994E-002     4.9041013239690401E-002
  -2.3499999999999993E-002     5.0792842457982532E-002
  -2.2999999999999993E-002     5.2599573833774393E-002
  -2.2499999999999992E-002     5.4462618871251145E-002
  -2.1999999999999992E-002     5.6383418593166423E-002
  -2.1499999999999991E-002     5.8363401436075407E-002
  -2.0999999999999991E-002     6.0404060785501451E-002
  -2.0499999999999990E-002     6.2506940776981490E-002
  -1.9999999999999990E-002     6.4673557166971596E-002
  -1.9499999999999990E-002     6.6905460926893007E-002
  -1.8999999999999989E-002     6.9204237533747659E-002
  -1.8499999999999989E-002     7.1571444729411321E-002
  -1.7999999999999988E-002     7.4008706606792679E-002
  -1.7499999999999988E-002     7.6517658898865193E-002
  -1.6999999999999987E-002     7.9099946379271424E-002
  -1.6499999999999987E-002     8.1757229765985567E-002
  -1.5999999999999986E-002     8.4491221293457652E-002
  -1.5499999999999986E-002     8.7303668943210538E-002
  -1.4999999999999986E-002     9.0196270092694236E-002
  -1.4499999999999985E-002     9.3170764143793383E-002
  -1.3999999999999985E-002     9.6228969020647925E-002
  -1.3499999999999984E-002     9.9372691428359083E-002
  -1.2999999999999984E-002    0.10260373535631268     
  -1.2499999999999983E-002    0.10592395610157296     
  -1.1999999999999983E-002    0.10933517262386411     
  -1.1499999999999982E-002    0.11283923724805378     
  -1.0999999999999982E-002    0.11643796549594176     
  -1.0499999999999982E-002    0.12013314720234536     
  -9.9999999999999811E-003    0.12392674030451739     
  -9.4999999999999807E-003    0.12782061531685607     
  -8.9999999999999802E-003    0.13181663549535888     
  -8.4999999999999798E-003    0.13591684547611710     
  -7.9999999999999793E-003    0.14012320524551747     
  -7.4999999999999789E-003    0.14443768511401256     
  -6.9999999999999785E-003    0.14886229446019111     
  -6.4999999999999780E-003    0.15339890416113411     
  -5.9999999999999776E-003    0.15804942958391155     
  -5.4999999999999771E-003    0.16281590954168801     
  -4.9999999999999767E-003    0.16770023870445250     
  -4.4999999999999762E-003    0.17270421419521892     
  -3.9999999999999758E-003    0.17782977124637950     
  -3.4999999999999754E-003    0.18307887986457955     
  -2.9999999999999749E-003    0.18845345207414893     
  -2.4999999999999745E-003    0.19395548227484394     
  -1.9999999999999740E-003    0.19958689866498414     
  -1.4999999999999736E-003    0.20534959794833574     
  -9.9999999999997313E-004    0.21124550747773652     
  -4.9999999999997269E-004    0.21727639363392781     
   0.0000000000000000         0.22344417097858527     
   5.0000000000000044E-004    0.22975073580131156     
   1.0000000000000009E-003    0.23619772262093486     
   1.5000000000000013E-003    0.24278700188464919     
   2.0000000000000018E-003    0.24952044312318133     
   2.5000000000000022E-003    0.25639971088544122     
   3.0000000000000027E-003    0.26342657257519586     
   3.5000000000000031E-003    0.27060260598607266     
   4.0000000000000036E-003    0.27792940188383430     
   4.5000000000000040E-003    0.28540859559052023     
   5.0000000000000044E-003    0.29304163825270746     
   5.5000000000000049E-003    0.30082994880373415     
   6.0000000000000053E-003    0.30877496285684491     
   6.5000000000000058E-003    0.31687802920587871     
   7.0000000000000062E-003    0.32514039651356852     
   7.5000000000000067E-003    0.33356334523251374     
   8.0000000000000071E-003    0.34214799068299095     
   8.5000000000000075E-003    0.35089552775422528     
   9.0000000000000080E-003    0.35980695540666874     
   9.5000000000000084E-003    0.36888313985617094     
   1.0000000000000009E-002    0.37812511992423814     
   1.0500000000000009E-002    0.38753412590922820     
   1.1000000000000010E-002    0.39711095470859070     
   1.1500000000000010E-002    0.40685618143017388     
   1.2000000000000011E-002    0.41677057385401550     
   1.2500000000000011E-002    0.42685473549553166     
   1.3000000000000012E-002    0.43710952484760823     
   1.3500000000000012E-002    0.44753504694479562     
   1.4000000000000012E-002    0.45813108471922614     
   1.4500000000000013E-002    0.46889768119783137     
   1.5000000000000013E-002    0.47983516444670649     
   1.5500000000000014E-002    0.49094338058685216     
   1.6000000000000014E-002    0.50222198136418772     
   1.6500000000000015E-002    0.51367073642189531     
   1.7000000000000015E-002    0.52528920575303251     
   1.7500000000000016E-002    0.53707672556050312     
   1.8000000000000016E-002    0.54903316532310020     
   1.8500000000000016E-002    0.56115727689712847     
   1.9000000000000017E-002    0.57344813346644563     
   1.9500000000000017E-002    0.58590464903510875     
   2.0000000000000018E-002    0.59852533980866540     
   2.0500000000000018E-002    0.61130855206668655     
   2.1000000000000019E-002    0.62425264551892945     
   2.1500000000000019E-002    0.63735581620152271     
   2.2000000000000020E-002    0.65061644177208855     
   2.2500000000000020E-002    0.66403269246625096     
   2.3000000000000020E-002    0.67760221772025409     
   2.3500000000000021E-002    0.69132242308114478     
   2.4000000000000021E-002    0.70519075170325185     
   2.4500000000000022E-002    0.71920469643889318     
   2.5000000000000022E-002    0.73336158784813232     
   2.5500000000000023E-002    0.74765812593097292     
   2.6000000000000023E-002    0.76209072139393141     
   2.6500000000000024E-002    0.77665619038947575     
   2.7000000000000024E-002    0.79135117766952034     
   2.7500000000000024E-002    0.80617147506664422     
   2.8000000000000025E-002    0.82111338177248938     
   2.8500000000000025E-002    0.83617311838653907     
   2.9000000000000026E-002    0.85134605115552731     
   2.9500000000000026E-002    0.86662697414038803     
   3.0000000000000027E-002    0.88201135490564431     
   3.0500000000000027E-002    0.89749403370257896     
   3.1000000000000028E-002    0.91306876387769131     
   3.1500000000000028E-002    0.92873044550798989     
   3.2000000000000028E-002    0.94447316992215269     