 -0.23999999999999999          0.0000000000000000     
 -0.23949999999999999          0.0000000000000000     
 -0.23899999999999999          0.0000000000000000     
 -0.23849999999999999          0.0000000000000000     
 -0.23799999999999999          0.0000000000000000     
 -0.23749999999999999          3.4426041581570995E-023
 -0.23699999999999999          3.4640809474420087E-022
 -0.23649999999999999          1.8682814611692851E-021
 -0.23599999999999999          7.1442280282756789E-021
 -0.23549999999999999          2.1635694734093589E-020
 -0.23499999999999999          5.4979073877705939E-020
 -0.23449999999999999          1.2130971198599395E-019
 -0.23399999999999999          2.3742274108731766E-019
 -0.23349999999999999          4.1756170154337138E-019
 -0.23299999999999998          6.6422318499255674E-019
 -0.23249999999999998          9.5561087646231530E-019
 -0.23199999999999998          1.2320978970489888E-018
 -0.23149999999999998          1.3858577204020703E-018
 -0.23099999999999998          1.2590827434760416E-018
 -0.23049999999999998          6.5631756565901923E-019
 -0.22999999999999998         -6.2510684434692805E-019
 -0.22949999999999998         -2.7458304386503800E-018
 -0.22899999999999998         -5.7603717285558572E-018
 -0.22849999999999998         -9.5473543848445799E-018
 -0.22799999999999998         -1.3747815276552957E-017
 -0.22749999999999998         -1.7728131680661470E-017
 -0.22699999999999998         -2.0583998483139903E-017
 -0.22649999999999998         -2.1198614929365100E-017
 -0.22599999999999998         -1.8361755250199450E-017
 -0.22549999999999998         -1.0947756488619711E-017
 -0.22499999999999998          1.8593263684611087E-018
 -0.22449999999999998          2.0314533639486369E-017
 -0.22399999999999998          4.3864005368074831E-017
 -0.22349999999999998          7.0935451246785619E-017
 -0.22299999999999998          9.8806012798251977E-017
 -0.22249999999999998          1.2358765388624957E-016
 -0.22199999999999998          1.4036905451192927E-016
 -0.22150000000000000          1.4354722259782836E-016
 -0.22100000000000000          1.2737214850122319E-016
 -0.22050000000000000          8.6709042193512656E-017
 -0.22000000000000000          1.7994597532672285E-017
 -0.21950000000000000         -7.9674891781413538E-017
 -0.21900000000000000         -2.0343390732516207E-016
 -0.21850000000000000         -3.4567819197892859E-016
 -0.21800000000000000         -4.9344184375653852E-016
 -0.21750000000000000         -6.2835479919218392E-016
 -0.21700000000000000         -7.2740580367013600E-016
 -0.21650000000000000         -7.6468328760116267E-016
 -0.21600000000000000         -7.1415971142523845E-016
 -0.21550000000000000         -5.5342440336936330E-016
 -0.21500000000000000         -2.6807697484625235E-016
 -0.21450000000000000          1.4371686545967523E-016
 -0.21400000000000000          6.6718106774908306E-016
 -0.21350000000000000          1.2681836731173724E-015
 -0.21299999999999999          1.8925795154960943E-015
 -0.21249999999999999          2.4682903228873552E-015
 -0.21199999999999999          2.9104938756369793E-015
 -0.21149999999999999          3.1298759913721311E-015
 -0.21099999999999999          3.0434153767447731E-015
 -0.21049999999999999          2.5866498407387126E-015
 -0.20999999999999999          1.7259525977909472E-015
 -0.20949999999999999          4.6906575727036330E-016
 -0.20899999999999999         -1.1278967205819993E-015
 -0.20849999999999999         -2.9585252723897354E-015
 -0.20799999999999999         -4.8703089571710527E-015
 -0.20749999999999999         -6.6752372338210321E-015
 -0.20699999999999999         -8.1662213703461428E-015
 -0.20649999999999999         -9.1378802552001924E-015
 -0.20599999999999999         -9.4094649406500983E-015
 -0.20549999999999999         -8.8472287514917141E-015
 -0.20499999999999999         -7.3834436663583807E-015
 -0.20449999999999999         -5.0295188806512046E-015
 -0.20399999999999999         -1.8813966234746940E-015
 -0.20349999999999999          1.8836945412083294E-015
 -0.20299999999999999          6.0188961468936542E-015
 -0.20249999999999999          1.0226482954898864E-014
 -0.20199999999999999          1.4181583963419417E-014
 -0.20149999999999998          1.7558103936968850E-014
 -0.20099999999999998          2.0054079563999523E-014
 -0.20049999999999998          2.1413931285877190E-014
 -0.19999999999999998          2.1445841815080960E-014
 -0.19949999999999998          2.0033374970758292E-014
 -0.19899999999999998          1.7141381543481708E-014
 -0.19849999999999998          1.2817129137977372E-014
 -0.19799999999999998          7.1879785658487378E-015
 -0.19749999999999998          4.5713442142737162E-016
 -0.19699999999999998         -7.1014134421000871E-015
 -0.19649999999999998         -1.5148239363967568E-014
 -0.19600000000000001         -2.3284559004738122E-014
 -0.19550000000000001         -3.1060183598551475E-014
 -0.19500000000000001         -3.7985139753911289E-014
 -0.19450000000000001         -4.3546987661583854E-014
 -0.19400000000000001         -4.7235322581190002E-014
 -0.19350000000000001         -4.8574157728696255E-014
 -0.19300000000000000         -4.7161286921903527E-014
 -0.19250000000000000         -4.2712369385698530E-014
 -0.19200000000000000         -3.5105506154103425E-014
 -0.19150000000000000         -2.4421034779093256E-014
 -0.19100000000000000         -1.0970474624919655E-014
 -0.19050000000000000          4.6911991574930146E-015
 -0.19000000000000000          2.1774759784993745E-014
 -0.18950000000000000          3.9290185560533788E-014
 -0.18900000000000000          5.6104421332110505E-014
 -0.18850000000000000          7.1020510593562036E-014
 -0.18800000000000000          8.2872363544408298E-014
 -0.18750000000000000          9.0626453135809652E-014
 -0.18700000000000000          9.3480219912871671E-014
 -0.18650000000000000          9.0946869932664299E-014
 -0.18600000000000000          8.2916107788894923E-014
 -0.18550000000000000          6.9682927709084370E-014
 -0.18500000000000000          5.1939663073451427E-014
 -0.18450000000000000          3.0730255945462893E-014
 -0.18400000000000000          7.3691552116082382E-015
 -0.18350000000000000         -1.6667950406130329E-014
 -0.18300000000000000         -3.9871725393997144E-014
 -0.18250000000000000         -6.0833445397694907E-014
 -0.18200000000000000         -7.8372501012406191E-014
 -0.18149999999999999         -9.1645662974862396E-014
 -0.18099999999999999         -1.0022780676580869E-013
 -0.18049999999999999         -1.0415627092227932E-013
 -0.17999999999999999         -1.0393599204158064E-013
 -0.17949999999999999         -1.0050579107798349E-013
 -0.17899999999999999         -9.5168630819705134E-014
 -0.17849999999999999         -8.9494886628684778E-014
 -0.17799999999999999         -8.5205880829129851E-014
 -0.17749999999999999         -8.4048958617770484E-014
 -0.17699999999999999         -8.7674042129054752E-014
 -0.17649999999999999         -9.7519677564773188E-014
 -0.17599999999999999         -1.1471681098454455E-013
 -0.17549999999999999         -1.4001443829321997E-013
 -0.17499999999999999         -1.7372718184296044E-013
 -0.17449999999999999         -2.1571004708486626E-013
 -0.17399999999999999         -2.6535236968253222E-013
 -0.17349999999999999         -3.2158967047373762E-013
 -0.17299999999999999         -3.8293419860515293E-013
 -0.17249999999999999         -4.4751102229333060E-013
 -0.17199999999999999         -5.1311436415370238E-013
 -0.17149999999999999         -5.7725992840666011E-013
 -0.17099999999999999         -6.3725954585726815E-013
 -0.17049999999999998         -6.9029405719890258E-013
 -0.16999999999999998         -7.3349471131142692E-013
 -0.16949999999999998         -7.6404760326051534E-013
 -0.16899999999999998         -7.7930711318637774E-013
 -0.16849999999999998         -7.7690316471990342E-013
 -0.16799999999999998         -7.5487992618346924E-013
 -0.16749999999999998         -7.1181309097558992E-013
 -0.16699999999999998         -6.4695056661661669E-013
 -0.16649999999999998         -5.6030264211152611E-013
 -0.16599999999999998         -4.5271432391332890E-013
 -0.16549999999999998         -3.2594396328219538E-013
 -0.16499999999999998         -1.8263694500700087E-013
 -0.16449999999999998         -2.6297434781336353E-014
 -0.16399999999999998          1.3876402164781685E-013
 -0.16349999999999998          3.0766112054281756E-013
 -0.16299999999999998          4.7498158877380258E-013
 -0.16249999999999998          6.3506960555454226E-013
 -0.16199999999999998          7.8216958683075338E-013
 -0.16149999999999998          9.1064966530521601E-013
 -0.16099999999999998          1.0151664471451186E-012
 -0.16049999999999998          1.0906607621989234E-012
 -0.15999999999999998          1.1325387678735927E-012
 -0.15949999999999998          1.1365329994429517E-012
 -0.15899999999999997          1.0987224730866333E-012
 -0.15849999999999997          1.0152691389176576E-012
 -0.15799999999999997          8.8229404389604179E-013
 -0.15749999999999997          6.9571150579899646E-013
 -0.15699999999999997          4.5090562744368100E-013
 -0.15649999999999997          1.4280333767330733E-013
 -0.15599999999999997         -2.3451333592673911E-013
 -0.15549999999999997         -6.8763036650226228E-013
 -0.15499999999999997         -1.2238821454432723E-012
 -0.15449999999999997         -1.8511279484452103E-012
 -0.15399999999999997         -2.5775409501417230E-012
 -0.15349999999999997         -3.4115432325955982E-012
 -0.15299999999999997         -4.3614324882603407E-012
 -0.15249999999999997         -5.4351192581730044E-012
 -0.15200000000000000         -6.6401966607493199E-012
 -0.15150000000000000         -7.9835530878357263E-012
 -0.15100000000000000         -9.4719768938215970E-012
 -0.15049999999999999         -1.1111565230210246E-011
 -0.14999999999999999         -1.2908695399315833E-011
 -0.14949999999999999         -1.4869729605265691E-011
 -0.14899999999999999         -1.7001839804544952E-011
 -0.14849999999999999         -1.9313541816103534E-011
 -0.14799999999999999         -2.1814892707865073E-011
 -0.14749999999999999         -2.4517221912948972E-011
 -0.14699999999999999         -2.7435273516044160E-011
 -0.14649999999999999         -3.0584885534736628E-011
 -0.14599999999999999         -3.3985588239111067E-011
 -0.14549999999999999         -3.7658002249998201E-011
 -0.14499999999999999         -4.1625399718839045E-011
 -0.14449999999999999         -4.5912873608340524E-011
 -0.14399999999999999         -5.0546290275209329E-011
 -0.14349999999999999         -5.5552829643880015E-011
 -0.14299999999999999         -6.0959281063208419E-011
 -0.14249999999999999         -6.6793148390010519E-011
 -0.14199999999999999         -7.3081354589488326E-011
 -0.14149999999999999         -7.9849680090197878E-011
 -0.14099999999999999         -8.7124382318915609E-011
 -0.14049999999999999         -9.4930263674724355E-011
 -0.13999999999999999         -1.0329319249558961E-010
 -0.13949999999999999         -1.1223881010603859E-010
 -0.13899999999999998         -1.2179356315546125E-010
 -0.13849999999999998         -1.3198643211134907E-010
 -0.13799999999999998         -1.4284989028731369E-010
 -0.13749999999999998         -1.5441649267635972E-010
 -0.13699999999999998         -1.6672695002266936E-010
 -0.13649999999999998         -1.7982780845670765E-010
 -0.13599999999999998         -1.9376956429872087E-010
 -0.13550000000000001         -2.0860953023474904E-010
 -0.13500000000000001         -2.2441033854422320E-010
 -0.13450000000000001         -2.4124105939822135E-010
 -0.13400000000000001         -2.5918355963267620E-010
 -0.13350000000000001         -2.7832030158976294E-010
 -0.13300000000000001         -2.9874347855906284E-010
 -0.13250000000000001         -3.2054610101939996E-010
 -0.13200000000000001         -3.4382990383316241E-010
 -0.13150000000000001         -3.6870069839437087E-010
 -0.13100000000000001         -3.9527642574693158E-010
 -0.13050000000000000         -4.2366936376313649E-010
 -0.13000000000000000         -4.5400061280831645E-010
 -0.12950000000000000         -4.8639590587019820E-010
 -0.12900000000000000         -5.2098615677818707E-010
 -0.12850000000000000         -5.5790466755391301E-010
 -0.12800000000000000         -5.9729945920336538E-010
 -0.12750000000000000         -6.3931114195035214E-010
 -0.12700000000000000         -6.8409872054951328E-010
 -0.12650000000000000         -7.3182501195524140E-010
 -0.12600000000000000         -7.8266579444231972E-010
 -0.12550000000000000         -8.3681501900172737E-010
 -0.12499999999999999         -8.9447208728072058E-010
 -0.12449999999999999         -9.5585799793292676E-010
 -0.12399999999999999         -1.0212026372261271E-009
 -0.12349999999999998         -1.0907689868812342E-009
 -0.12299999999999998         -1.1648282710797039E-009
 -0.12249999999999998         -1.2436712285449151E-009
 -0.12199999999999998         -1.3276089902097937E-009
 -0.12149999999999998         -1.4169871103620253E-009
 -0.12099999999999998         -1.5121680573244382E-009
 -0.12049999999999998         -1.6135178330749402E-009
 -0.12000000000000000         -1.7214596960185782E-009
 -0.11950000000000000         -1.8363946010553550E-009
 -0.11899999999999999         -1.9587598395480257E-009
 -0.11849999999999999         -2.0890268421015906E-009
 -0.11799999999999999         -2.2276627298432845E-009
 -0.11749999999999999         -2.3751681872334202E-009
 -0.11699999999999999         -2.5320877244291405E-009
 -0.11649999999999999         -2.6989946006921448E-009
 -0.11599999999999999         -2.8764148466333984E-009
 -0.11549999999999999         -3.0649792192179844E-009
 -0.11499999999999999         -3.2653480146247061E-009
 -0.11449999999999999         -3.4781857124961913E-009
 -0.11399999999999999         -3.7042003490845069E-009
 -0.11349999999999999         -3.9442155809856494E-009
 -0.11299999999999999         -4.1990390737432377E-009
 -0.11249999999999999         -4.4695401981631242E-009
 -0.11199999999999999         -4.7566660818452950E-009
 -0.11149999999999999         -5.0614060057507931E-009
 -0.11099999999999999         -5.3847900798447691E-009
 -0.11049999999999999         -5.7279943390991152E-009
 -0.10999999999999999         -6.0921904249191985E-009
 -0.10949999999999999         -6.4786086171631927E-009
 -0.10899999999999999         -6.8886400897909476E-009
 -0.10849999999999999         -7.3236385729763623E-009
 -0.10799999999999998         -7.7850824118405790E-009
 -0.10749999999999998         -8.2744879770380206E-009
 -0.10699999999999998         -8.7935317832822485E-009
 -0.10649999999999998         -9.3438897205995108E-009
 -0.10599999999999998         -9.9274009846544552E-009
 -0.10549999999999998         -1.0545961414809830E-008
 -0.10499999999999998         -1.1201571054593966E-008
 -0.10449999999999998         -1.1896433018437973E-008
 -0.10399999999999998         -1.2632683063852903E-008
 -0.10349999999999998         -1.3412730004447640E-008
 -0.10299999999999998         -1.4239100470600280E-008
 -0.10249999999999998         -1.5114379401839670E-008
 -0.10199999999999998         -1.6041322077629423E-008
 -0.10149999999999998         -1.7022916915724404E-008
 -0.10099999999999998         -1.8062296983056891E-008
 -0.10049999999999998         -1.9162683373279002E-008
  -9.9999999999999978E-002    -2.0327556241279915E-008
  -9.9499999999999977E-002    -2.1560452297710231E-008
  -9.8999999999999977E-002    -2.2865166788086038E-008
  -9.8499999999999976E-002    -2.4245640715378625E-008
  -9.7999999999999976E-002    -2.5706423233948466E-008
  -9.7499999999999976E-002    -2.7251705905167657E-008
  -9.6999999999999975E-002    -2.8886144047501235E-008
  -9.6499999999999975E-002    -3.0614931430982395E-008
  -9.5999999999999974E-002    -3.2442925436766207E-008
  -9.5500000000000002E-002    -3.4375786812939660E-008
  -9.5000000000000001E-002    -3.6419182749296967E-008
  -9.4500000000000001E-002    -3.8579105521266234E-008
  -9.4000000000000000E-002    -4.0861829695776541E-008
  -9.3500000000000000E-002    -4.3274496545510043E-008
  -9.2999999999999999E-002    -4.5823526026127249E-008
  -9.2499999999999999E-002    -4.8516364883529710E-008
  -9.1999999999999998E-002    -5.1360761831109455E-008
  -9.1499999999999998E-002    -5.4365021553246128E-008
  -9.0999999999999998E-002    -5.7537424196422438E-008
  -9.0499999999999997E-002    -6.0887017330005826E-008
  -8.9999999999999997E-002    -6.4423472306100818E-008
  -8.9499999999999996E-002    -6.8156876588207187E-008
  -8.8999999999999996E-002    -7.2097828154555560E-008
  -8.8499999999999995E-002    -7.6256803370735196E-008
  -8.7999999999999995E-002    -8.0645737920291998E-008
  -8.7499999999999994E-002    -8.5276758047775251E-008
  -8.6999999999999994E-002    -9.0162732885025543E-008
  -8.6499999999999994E-002    -9.5316402128788429E-008
  -8.5999999999999993E-002    -1.0075254680722343E-007
  -8.5499999999999993E-002    -1.0648561527131757E-007
  -8.4999999999999992E-002    -1.1253064698190709E-007
  -8.4499999999999992E-002    -1.1890381989666968E-007
  -8.3999999999999991E-002    -1.2562209080654564E-007
  -8.3499999999999991E-002    -1.3270403746398964E-007
  -8.2999999999999990E-002    -1.4016760636562803E-007
  -8.2499999999999990E-002    -1.4803273095860972E-007
  -8.1999999999999990E-002    -1.5631953908885406E-007
  -8.1499999999999989E-002    -1.6504989756025185E-007
  -8.0999999999999989E-002    -1.7424468978341206E-007
  -8.0499999999999988E-002    -1.8393031096117052E-007
  -7.9999999999999988E-002    -1.9412933625296224E-007
  -7.9499999999999987E-002    -2.0486685558152865E-007
  -7.8999999999999987E-002    -2.1616948700798334E-007
  -7.8499999999999986E-002    -2.2806906541356627E-007
  -7.7999999999999986E-002    -2.4059264690588011E-007
  -7.7499999999999986E-002    -2.5377275487895006E-007
  -7.6999999999999985E-002    -2.6763973806594631E-007
  -7.6499999999999985E-002    -2.8222980225924569E-007
  -7.5999999999999984E-002    -2.9757755469836587E-007
  -7.5499999999999984E-002    -3.1372138061185405E-007
  -7.4999999999999983E-002    -3.3070028640678889E-007
  -7.4499999999999983E-002    -3.4855423903226704E-007
  -7.3999999999999982E-002    -3.6732408049701931E-007
  -7.3499999999999982E-002    -3.8705666762189340E-007
  -7.2999999999999982E-002    -4.0779685676450278E-007
  -7.2499999999999981E-002    -4.2959778064202268E-007
  -7.1999999999999981E-002    -4.5250860153430169E-007
  -7.1499999999999980E-002    -4.7657894765787566E-007
  -7.0999999999999980E-002    -5.0186270702508609E-007
  -7.0499999999999979E-002    -5.2842258049936452E-007
  -6.9999999999999979E-002    -5.5632221907437595E-007
  -6.9499999999999978E-002    -5.8562064336215717E-007
  -6.8999999999999978E-002    -6.1638221796594485E-007
  -6.8499999999999978E-002    -6.4867467201693076E-007
  -6.7999999999999977E-002    -6.8257691936372384E-007
  -6.7499999999999977E-002    -7.1815599731031423E-007
  -6.6999999999999976E-002    -7.5550029576231114E-007
  -6.6499999999999976E-002    -7.9468238956847955E-007
  -6.5999999999999975E-002    -8.3579391340986310E-007
  -6.5499999999999975E-002    -8.7891347895132170E-007
  -6.4999999999999974E-002    -9.2414731786279833E-007
  -6.4499999999999974E-002    -9.7158061416674619E-007
  -6.4000000000000001E-002    -1.0213247923965270E-006
  -6.3500000000000001E-002    -1.0734702295277154E-006
  -6.3000000000000000E-002    -1.1281373948200886E-006
  -6.2500000000000000E-002    -1.1854419120434097E-006
  -6.2000000000000000E-002    -1.2455080161909670E-006
  -6.1499999999999999E-002    -1.3084399645061816E-006
  -6.0999999999999999E-002    -1.3743841498739821E-006
  -6.0499999999999998E-002    -1.4434741140633773E-006
  -5.9999999999999998E-002    -1.5158304187095163E-006
  -5.9499999999999997E-002    -1.5916192100869413E-006
  -5.8999999999999997E-002    -1.6709832623204222E-006
  -5.8499999999999996E-002    -1.7540857932493134E-006
  -5.7999999999999996E-002    -1.8410911177271485E-006
  -5.7499999999999996E-002    -1.9321581423098517E-006
  -5.6999999999999995E-002    -2.0274817027219469E-006
  -5.6499999999999995E-002    -2.1272347795447241E-006
  -5.5999999999999994E-002    -2.2316146435610651E-006
  -5.5499999999999994E-002    -2.3408045201825254E-006
  -5.4999999999999993E-002    -2.4550029961633974E-006
  -5.4499999999999993E-002    -2.5744827291525074E-006
  -5.3999999999999992E-002    -2.6994336733980136E-006
  -5.3499999999999992E-002    -2.8300671500815869E-006
  -5.2999999999999992E-002    -2.9666506762329732E-006
  -5.2499999999999991E-002    -3.1094389103653881E-006
  -5.1999999999999991E-002    -3.2586909703292179E-006
  -5.1499999999999990E-002    -3.4146920420529906E-006
  -5.0999999999999990E-002    -3.5776742822999625E-006
  -5.0499999999999989E-002    -3.7479671039717248E-006
  -4.9999999999999989E-002    -3.9258463944898283E-006
  -4.9499999999999988E-002    -4.1116592217419070E-006
  -4.8999999999999988E-002    -4.3057052120559711E-006
  -4.8499999999999988E-002    -4.5082983192143934E-006
  -4.7999999999999987E-002    -4.7198365582612249E-006
  -4.7499999999999987E-002    -4.9407015217168278E-006
  -4.6999999999999986E-002    -5.1712332321979558E-006
  -4.6499999999999986E-002    -5.4118225061495349E-006
  -4.5999999999999985E-002    -5.6628743588320489E-006
  -4.5499999999999985E-002    -5.9248097609976653E-006
  -4.4999999999999984E-002    -6.1980162235633361E-006
  -4.4499999999999984E-002    -6.4830298933787782E-006
  -4.3999999999999984E-002    -6.7802471067960520E-006
  -4.3499999999999983E-002    -7.0901977145503557E-006
  -4.2999999999999983E-002    -7.4134158746369584E-006
  -4.2499999999999982E-002    -7.7503358830596286E-006
  -4.1999999999999982E-002    -8.1015267396215477E-006
  -4.1499999999999981E-002    -8.4675521322669039E-006
  -4.0999999999999981E-002    -8.8490003072774201E-006
  -4.0499999999999980E-002    -9.2464865610366657E-006
  -3.9999999999999980E-002    -9.6605012699144207E-006
  -3.9499999999999980E-002    -1.0091810215987707E-005
  -3.8999999999999979E-002    -1.0541008444035333E-005
  -3.8499999999999979E-002    -1.1008794339534721E-005
  -3.7999999999999978E-002    -1.1495887472862594E-005
  -3.7499999999999978E-002    -1.2002988748935132E-005
  -3.6999999999999977E-002    -1.2530784865595188E-005
  -3.6499999999999977E-002    -1.3080048553530100E-005
  -3.5999999999999976E-002    -1.3651725566100296E-005
  -3.5499999999999976E-002    -1.4246574731215871E-005
  -3.4999999999999976E-002    -1.4865417473667771E-005
  -3.4499999999999975E-002    -1.5509057848736472E-005
  -3.3999999999999975E-002    -1.6178560515950081E-005
  -3.3499999999999974E-002    -1.6874757376655913E-005
  -3.2999999999999974E-002    -1.7598545513248753E-005
  -3.2499999999999973E-002    -1.8350948862842782E-005
  -3.1999999999999973E-002    -1.9133199100234151E-005
  -3.1500000000000000E-002    -1.9946223800649767E-005
  -3.1000000000000000E-002    -2.0790994960050610E-005
  -3.0499999999999999E-002    -2.1668737657078327E-005
  -2.9999999999999999E-002    -2.2580733864356874E-005
  -2.9499999999999998E-002    -2.3527957373970641E-005
  -2.8999999999999998E-002    -2.4511830906094888E-005
  -2.8499999999999998E-002    -2.5533545740344104E-005
  -2.7999999999999997E-002    -2.6594429348206595E-005
  -2.7499999999999997E-002    -2.7695539903622249E-005
  -2.6999999999999996E-002    -2.8838816296862852E-005
  -2.6499999999999996E-002    -3.0025088945968834E-005
  -2.5999999999999995E-002    -3.1256145708622848E-005
  -2.5499999999999995E-002    -3.2533654295663773E-005
  -2.4999999999999994E-002    -3.3859043730018808E-005
  -2.4499999999999994E-002    -3.5233779388719897E-005
  -2.3999999999999994E-002    -3.6659448917165515E-005
  -2.3499999999999993E-002    -3.8137715630283091E-005
  -2.2999999999999993E-002    -3.9670410341753921E-005
  -2.2499999999999992E-002    -4.1259292887337355E-005
  -2.1999999999999992E-002    -4.2906466887884296E-005
  -2.1499999999999991E-002    -4.4613697027944384E-005
  -2.0999999999999991E-002    -4.6382867030635985E-005
  -2.0499999999999990E-002    -4.8215697535130661E-005
  -1.9999999999999990E-002    -5.0114097317167239E-005
  -1.9499999999999990E-002    -5.2080922386262533E-005
  -1.8999999999999989E-002    -5.4117808790416256E-005
  -1.8499999999999989E-002    -5.6226944632187454E-005
  -1.7999999999999988E-002    -5.8410189045647603E-005
  -1.7499999999999988E-002    -6.0670775136174892E-005
  -1.6999999999999987E-002    -6.3010639379452061E-005
  -1.6499999999999987E-002    -6.5432387673156252E-005
  -1.5999999999999986E-002    -6.7938314770939374E-005
  -1.5499999999999986E-002    -7.0530529331979145E-005
  -1.4999999999999986E-002    -7.3212207454988832E-005
  -1.4499999999999985E-002    -7.5985957572888345E-005
  -1.3999999999999985E-002    -7.8853912463988630E-005
  -1.3499999999999984E-002    -8.1819129801841324E-005
  -1.2999999999999984E-002    -8.4884490093017624E-005
  -1.2499999999999983E-002    -8.8053643928008454E-005
  -1.1999999999999983E-002    -9.1328549272044274E-005
  -1.1499999999999982E-002    -9.4713630302920384E-005
  -1.0999999999999982E-002    -9.8211160128203163E-005
  -1.0499999999999982E-002    -1.0182418393117390E-004
  -9.9999999999999811E-003    -1.0555664545767058E-004
  -9.4999999999999807E-003    -1.0941149420622880E-004
  -8.9999999999999802E-003    -1.1339257095306535E-004
  -8.4999999999999798E-003    -1.1750230423548328E-004
  -7.9999999999999793E-003    -1.2174540365332803E-004
  -7.4999999999999789E-003    -1.2612585750459000E-004
  -6.9999999999999785E-003    -1.3064585976090926E-004
  -6.4999999999999780E-003    -1.3530944908503334E-004
  -5.9999999999999776E-003    -1.4012137355683021E-004
  -5.4999999999999771E-003    -1.4508532178623225E-004
  -4.9999999999999767E-003    -1.5020584819133492E-004
  -4.4999999999999762E-003    -1.5548566977959877E-004
  -3.9999999999999758E-003    -1.6093051723688754E-004
  -3.4999999999999754E-003    -1.6654369558614848E-004
  -2.9999999999999749E-003    -1.7232884664013205E-004
  -2.4999999999999745E-003    -1.7829086965068778E-004
  -1.9999999999999740E-003    -1.8443643346103579E-004
  -1.4999999999999736E-003    -1.9076729987743614E-004
  -9.9999999999997313E-004    -1.9728808995688336E-004
  -4.9999999999997269E-004    -2.0400432591803424E-004
   0.0000000000000000         -2.1092038423159594E-004
   5.0000000000000044E-004    -2.1804293938236096E-004
   1.0000000000000009E-003    -2.2537666022336416E-004
   1.5000000000000013E-003    -2.3292554422470278E-004
   2.0000000000000018E-003    -2.4069475656376320E-004
   2.5000000000000022E-003    -2.4868824145278013E-004
   3.0000000000000027E-003    -2.5691462754274868E-004
   3.5000000000000031E-003    -2.6537744116384094E-004
   4.0000000000000036E-003    -2.7408156488494711E-004
   4.5000000000000040E-003    -2.8303398013433711E-004
   5.0000000000000044E-003    -2.9224037683567641E-004
   5.5000000000000049E-003    -3.0170544959210192E-004
   6.0000000000000053E-003    -3.1143504802064236E-004
   6.5000000000000058E-003    -3.2143783472986362E-004
   7.0000000000000062E-003    -3.3171579833596602E-004
   7.5000000000000067E-003    -3.4227735004104128E-004
   8.0000000000000071E-003    -3.5312556315692792E-004
   8.5000000000000075E-003    -3.6427050401214005E-004
   9.0000000000000080E-003    -3.7571479894377277E-004
   9.5000000000000084E-003    -3.8746794151999907E-004
   1.0000000000000009E-002    -3.9953281397858524E-004
   1.0500000000000009E-002    -4.1191630028883353E-004
   1.1000000000000010E-002    -4.2462838177003141E-004
   1.1500000000000010E-002    -4.3767412487110292E-004
   1.2000000000000011E-002    -4.5106392008244993E-004
   1.2500000000000011E-002    -4.6479849653050962E-004
   1.3000000000000012E-002    -4.7888638594048463E-004
   1.3500000000000012E-002    -4.9333206021583034E-004
   1.4000000000000012E-002    -5.0814444688112204E-004
   1.4500000000000013E-002    -5.2333095087101237E-004
   1.5000000000000013E-002    -5.3889816145059346E-004
   1.5500000000000014E-002    -5.5484953748604661E-004
   1.6000000000000014E-002    -5.7119277733696703E-004
   1.6500000000000015E-002    -5.8793953707528658E-004
   1.7000000000000015E-002    -6.0509476830110636E-004
   1.7500000000000016E-002    -6.2266270748470446E-004
   1.8000000000000016E-002    -6.4065274127850388E-004
   1.8500000000000016E-002    -6.5907319294994404E-004
   1.9000000000000017E-002    -6.7792816077818000E-004
   1.9500000000000017E-002    -6.9722677614470993E-004
   2.0000000000000018E-002    -7.1698132747259700E-004
   2.0500000000000018E-002    -7.3719354011950503E-004
   2.1000000000000019E-002    -7.5787259777765218E-004
   2.1500000000000019E-002    -7.7902427562474407E-004
   2.2000000000000020E-002    -8.0066037460369043E-004
   2.2500000000000020E-002    -8.2277535940855715E-004
   2.3000000000000020E-002    -8.4538385253187182E-004
   2.3500000000000021E-002    -8.6849648906985738E-004
   2.4000000000000021E-002    -8.9211327360796955E-004
   2.4500000000000022E-002    -9.1625435129808310E-004
   2.5000000000000022E-002    -9.4092032425932472E-004
   2.5500000000000023E-002    -9.6610543097702759E-004
   2.6000000000000023E-002    -9.9183020573482151E-004
   2.6500000000000024E-002    -1.0180960682460052E-003
   2.7000000000000024E-002    -1.0449109459662498E-003
   2.7500000000000024E-002    -1.0722811948553346E-003
   2.8000000000000025E-002    -1.1002114188146629E-003
   2.8500000000000025E-002    -1.1287218447846069E-003
   2.9000000000000026E-002    -1.1578025548895201E-003
   2.9500000000000026E-002    -1.1874644156248996E-003
   3.0000000000000027E-002    -1.2177161705179723E-003
   3.0500000000000027E-002    -1.2485712364974691E-003
   3.1000000000000028E-002    -1.2800171940074490E-003
   3.1500000000000028E-002    -1.3120682494286860E-003
   3.2000000000000028E-002    -1.3447336336700772E-003