 -0.23999999999999999          0.0000000000000000     
 -0.23949999999999999          0.0000000000000000     
 -0.23899999999999999          0.0000000000000000     
 -0.23849999999999999          0.0000000000000000     
 -0.23799999999999999          0.0000000000000000     
 -0.23749999999999999          0.0000000000000000     
 -0.23699999999999999          0.0000000000000000     
 -0.23649999999999999          0.0000000000000000     
 -0.23599999999999999          0.0000000000000000     
 -0.23549999999999999         -2.9998155201805445E-034
 -0.23499999999999999         -5.2376201933578431E-033
 -0.23449999999999999         -4.7130418177064268E-032
 -0.23399999999999999         -2.9475468761611230E-031
 -0.23349999999999999         -1.4333019306763618E-030
 -0.23299999999999998         -5.7585181266368986E-030
 -0.23249999999999998         -1.9860389203278828E-029
 -0.23199999999999998         -6.0322132224770473E-029
 -0.23149999999999998         -1.6427184391352426E-028
 -0.23099999999999998         -4.0630169225054911E-028
 -0.23049999999999998         -9.2124930281487071E-028
 -0.22999999999999998         -1.9274432171984461E-027
 -0.22949999999999998         -3.7362670778468343E-027
 -0.22899999999999998         -6.7216729489049303E-027
 -0.22849999999999998         -1.1209495052370144E-026
 -0.22799999999999998         -1.7237956502547909E-026
 -0.22749999999999998         -2.4145356871368017E-026
 -0.22699999999999998         -2.9973302621165449E-026
 -0.22649999999999998         -3.0745665377781093E-026
 -0.22599999999999998         -1.9797157367650702E-026
 -0.22549999999999998          1.2510218421835958E-026
 -0.22499999999999998          7.8180846785798340E-026
 -0.22449999999999998          1.8945298130634750E-025
 -0.22399999999999998          3.5448940394019155E-025
 -0.22349999999999998          5.7046300817317758E-025
 -0.22299999999999998          8.1413449932970348E-025
 -0.22249999999999998          1.0309431459430539E-024
 -0.22199999999999998          1.1249196395490961E-024
 -0.22150000000000000          9.5322677438510779E-025
 -0.22100000000000000          3.3069849059555291E-025
 -0.22050000000000000         -9.4954974470903230E-025
 -0.22000000000000000         -3.0732522069533155E-024
 -0.21950000000000000         -6.1362615954329020E-024
 -0.21900000000000000         -1.0049656162258257E-023
 -0.21850000000000000         -1.4427143992325166E-023
 -0.21800000000000000         -1.8470874529495893E-023
 -0.21750000000000000         -2.0883989205597292E-023
 -0.21700000000000000         -1.9848765996134037E-023
 -0.21650000000000000         -1.3115718632894163E-023
 -0.21600000000000000          1.7479787221032214E-024
 -0.21550000000000000          2.6912547433925348E-023
 -0.21500000000000000          6.3627339952938705E-023
 -0.21450000000000000          1.1136953485485997E-022
 -0.21400000000000000          1.6687694874427309E-022
 -0.21350000000000000          2.2320173729199659E-022
 -0.21299999999999999          2.6899979555187307E-022
 -0.21249999999999999          2.8831199674092063E-022
 -0.21199999999999999          2.6116067910053833E-022
 -0.21149999999999999          1.6525183540531986E-022
 -0.21099999999999999         -2.0975660647417525E-023
 -0.21049999999999999         -3.1385712595601902E-022
 -0.20999999999999999         -7.1868040383308769E-022
 -0.20949999999999999         -1.2229935533591507E-021
 -0.20899999999999999         -1.7897767385690051E-021
 -0.20849999999999999         -2.3517115478293859E-021
 -0.20799999999999999         -2.8080018453053265E-021
 -0.20749999999999999         -3.0254863390288825E-021
 -0.20699999999999999         -2.8458271727572865E-021
 -0.20649999999999999         -2.1001980518120563E-021
 -0.20599999999999999         -6.3234097874492989E-022
 -0.20549999999999999          1.6701784771679270E-021
 -0.20499999999999999          4.8382209585838813E-021
 -0.20449999999999999          8.7799811785082479E-021
 -0.20399999999999999          1.3242003774637024E-020
 -0.20349999999999999          1.7778974405295971E-020
 -0.20299999999999999          2.1740740591892177E-020
 -0.20249999999999999          2.4285379284569324E-020
 -0.20199999999999999          2.4426242688465509E-020
 -0.20149999999999998          2.1118945761645582E-020
 -0.20099999999999998          1.3391091673944428E-020
 -0.20049999999999998          5.1019990344413864E-022
 -0.19999999999999998         -1.7819188826603710E-020
 -0.19949999999999998         -4.1248302123408318E-020
 -0.19899999999999998         -6.8592250106659632E-020
 -0.19849999999999998         -9.7685951784797558E-020
 -0.19799999999999998         -1.2532505105071389E-019
 -0.19749999999999998         -1.4732805620376232E-019
 -0.19699999999999998         -1.5875258649159142E-019
 -0.19649999999999998         -1.5428560321997082E-019
 -0.19600000000000001         -1.2881274131899132E-019
 -0.19550000000000001         -7.8146690759234331E-020
 -0.19500000000000001          1.3218386477195945E-022
 -0.19450000000000001          1.0579703741404296E-019
 -0.19400000000000001          2.3516157731890102E-019
 -0.19350000000000001          3.8045709981025155E-019
 -0.19300000000000000          5.2953347033411016E-019
 -0.19250000000000000          6.6601428919019130E-019
 -0.19200000000000000          7.7001869517128160E-019
 -0.19150000000000000          8.1951502574436764E-019
 -0.19100000000000000          7.9231071065649302E-019
 -0.19050000000000000          6.6861434123900964E-019
 -0.19000000000000000          4.3400051921893398E-019
 -0.18950000000000000          8.2533895513615651E-020
 -0.18900000000000000         -3.8027571047378360E-019
 -0.18850000000000000         -9.3508616201255747E-019
 -0.18800000000000000         -1.5473223502049264E-018
 -0.18750000000000000         -2.1671416187161383E-018
 -0.18700000000000000         -2.7311276671469614E-018
 -0.18650000000000000         -3.1658959428227794E-018
 -0.18600000000000000         -3.3936361327780180E-018
 -0.18550000000000000         -3.3394252529693311E-018
 -0.18500000000000000         -2.9398515415982393E-018
 -0.18450000000000000         -2.1523150772252310E-018
 -0.18400000000000000         -9.6409370615943181E-019
 -0.18350000000000000          5.9985395727113308E-019
 -0.18300000000000000          2.4714557566602886E-018
 -0.18250000000000000          4.5374912302374096E-018
 -0.18200000000000000          6.6418992371745361E-018
 -0.18149999999999999          8.5928939319580627E-018
 -0.18099999999999999          1.0175223172617185E-017
 -0.18049999999999999          1.1166956473934453E-017
 -0.17999999999999999          1.1360117890443696E-017
 -0.17949999999999999          1.0583515765803251E-017
 -0.17899999999999999          8.7258705738159402E-018
 -0.17849999999999999          5.7567552432594832E-018
 -0.17799999999999999          1.7431694142872254E-018
 -0.17749999999999999         -3.1411467290142986E-018
 -0.17699999999999999         -8.6152069344364250E-018
 -0.17649999999999999         -1.4300829097918149E-017
 -0.17599999999999999         -1.9743645403838683E-017
 -0.17549999999999999         -2.4444661198805884E-017
 -0.17499999999999999         -2.7900230185032733E-017
 -0.17449999999999999         -2.9648333244376462E-017
 -0.17399999999999999         -2.9316136585276529E-017
 -0.17349999999999999         -2.6665972990582559E-017
 -0.17299999999999999         -2.1632403922246406E-017
 -0.17249999999999999         -1.4348015707798648E-017
 -0.17199999999999999         -5.1522498241778676E-018
 -0.17149999999999999          5.4188662375236976E-018
 -0.17099999999999999          1.6663932375070462E-017
 -0.17049999999999998          2.7766564414002406E-017
 -0.16999999999999998          3.7861784466440700E-017
 -0.16949999999999998          4.6114922759735294E-017
 -0.16899999999999998          5.1802716075042376E-017
 -0.16849999999999998          5.4391853407857904E-017
 -0.16799999999999998          5.3602192814364902E-017
 -0.16749999999999998          4.9448772500173494E-017
 -0.16699999999999998          4.2255541848634823E-017
 -0.16649999999999998          3.2632656426457821E-017
 -0.16599999999999998          2.1418976716285248E-017
 -0.16549999999999998          9.5950571688816322E-018
 -0.16499999999999998         -1.8344091813474343E-018
 -0.16449999999999998         -1.1972384159380491E-017
 -0.16399999999999998         -2.0157907454333848E-017
 -0.16349999999999998         -2.6085668115456317E-017
 -0.16299999999999998         -2.9886705081364395E-017
 -0.16249999999999998         -3.2162310695039883E-017
 -0.16199999999999998         -3.3957330198748545E-017
 -0.16149999999999998         -3.6661224410572384E-017
 -0.16099999999999998         -4.1841244932912344E-017
 -0.16049999999999998         -5.1012682431837339E-017
 -0.15999999999999998         -6.5370754897067287E-017
 -0.15949999999999998         -8.5484438712032877E-017
 -0.15899999999999997         -1.1104134541616185E-016
 -0.15849999999999997         -1.4059114133646349E-016
 -0.15799999999999997         -1.7142919648232080E-016
 -0.15749999999999997         -1.9959396126869044E-016
 -0.15699999999999997         -2.1997988624245585E-016
 -0.15649999999999997         -2.2671959737852877E-016
 -0.15599999999999997         -2.1363074440853201E-016
 -0.15549999999999997         -1.7490897839869635E-016
 -0.15499999999999997         -1.0590569340931047E-016
 -0.15449999999999997         -3.9745811495900191E-018
 -0.15399999999999997          1.3070187921302501E-016
 -0.15349999999999997          2.9436664780325914E-016
 -0.15299999999999997          4.7919578371689540E-016
 -0.15249999999999997          6.7310203095443301E-016
 -0.15200000000000000          8.5986533055878781E-016
 -0.15150000000000000          1.0198213753133847E-015
 -0.15100000000000000          1.1310138725641120E-015
 -0.15049999999999999          1.1708003799499428E-015
 -0.14999999999999999          1.1179505935042580E-015
 -0.14949999999999999          9.5488688356119935E-016
 -0.14899999999999999          6.7039057634737554E-016
 -0.14849999999999999          2.6192992465110350E-016
 -0.14799999999999999         -2.6216139777274950E-016
 -0.14749999999999999         -8.8102412520279140E-016
 -0.14699999999999999         -1.5605841423704496E-015
 -0.14649999999999999         -2.2538114400484877E-015
 -0.14599999999999999         -2.9022595969564334E-015
 -0.14549999999999999         -3.4388844016529176E-015
 -0.14499999999999999         -3.7923159167520727E-015
 -0.14449999999999999         -3.8923249429406037E-015
 -0.14399999999999999         -3.6760304419765145E-015
 -0.14349999999999999         -3.0950504554615732E-015
 -0.14299999999999999         -2.1225116577911188E-015
 -0.14249999999999999         -7.5953321388369176E-016
 -0.14199999999999999          9.5914937916489166E-016
 -0.14149999999999999          2.9618941683924720E-015
 -0.14099999999999999          5.1385227472841728E-015
 -0.14049999999999999          7.3427258166362546E-015
 -0.13999999999999999          9.3968828769780135E-015
 -0.13949999999999999          1.1100687077037173E-014
 -0.13899999999999998          1.2242958788798758E-014
 -0.13849999999999998          1.2617306673137722E-014
 -0.13799999999999998          1.2038388011141841E-014
 -0.13749999999999998          1.0361337097951396E-014
 -0.13699999999999998          7.4989699510953670E-015
 -0.13649999999999998          3.4409381192976698E-015
 -0.13599999999999998         -1.7349102784568701E-015
 -0.13550000000000001         -7.8504937805109630E-015
 -0.13500000000000001         -1.4626249283237892E-014
 -0.13450000000000001         -2.1682598416386327E-014
 -0.13400000000000001         -2.8552494303209949E-014
 -0.13350000000000001         -3.4702270392897098E-014
 -0.13300000000000001         -3.9556238328596589E-014
 -0.13250000000000001         -4.2534477999103814E-014
 -0.13200000000000001         -4.3090749529301591E-014
 -0.13150000000000001         -4.0758018650437329E-014
 -0.13100000000000001         -3.5190250394028770E-014
 -0.13050000000000000         -2.6204029402185699E-014
 -0.13000000000000000         -1.3817566082527044E-014
 -0.12950000000000000          1.7259931723858716E-015
 -0.12900000000000000          1.9940273288384641E-014
 -0.12850000000000000          4.0097897777632153E-014
 -0.12800000000000000          6.1242957715922943E-014
 -0.12750000000000000          8.2222541007749825E-014
 -0.12700000000000000          1.0173827514953164E-013
 -0.12650000000000000          1.1840325149007597E-013
 -0.12600000000000000          1.3082577855848356E-013
 -0.12550000000000000          1.3767962458774521E-013
 -0.12499999999999999          1.3781125526468515E-013
 -0.12449999999999999          1.3029864565685274E-013
 -0.12399999999999999          1.1455952744902188E-013
 -0.12349999999999998          9.0388193445238242E-014
 -0.12299999999999998          5.8023296067393398E-014
 -0.12249999999999998          1.8164645358739329E-014
 -0.12199999999999998         -2.8031128565895890E-014
 -0.12149999999999998         -7.8961201308290518E-014
 -0.12099999999999998         -1.3265734720886628E-013
 -0.12049999999999998         -1.8683204873908715E-013
 -0.12000000000000000         -2.3900110043208017E-013
 -0.11950000000000000         -2.8658463186065839E-013
 -0.11899999999999999         -3.2703169516994694E-013
 -0.11849999999999999         -3.5794070158234904E-013
 -0.11799999999999999         -3.7717253480235990E-013
 -0.11749999999999999         -3.8297123326880480E-013
 -0.11699999999999999         -3.7401849304538590E-013
 -0.11649999999999999         -3.4949817215322923E-013
 -0.11599999999999999         -3.0915241464894988E-013
 -0.11549999999999999         -2.5324664105671299E-013
 -0.11499999999999999         -1.8255285953348521E-013
 -0.11449999999999999         -9.8319723875696881E-014
 -0.11399999999999999         -2.1951976345721631E-015
 -0.11349999999999999          1.0385425218984812E-013
 -0.11299999999999999          2.1757810588730428E-013
 -0.11249999999999999          3.3655736136867594E-013
 -0.11199999999999999          4.5820457043980581E-013
 -0.11149999999999999          5.7981775162537594E-013
 -0.11099999999999999          6.9856770435714844E-013
 -0.11049999999999999          8.1146094903537705E-013
 -0.10999999999999999          9.1533155381374346E-013
 -0.10949999999999999          1.0067624992523368E-012
 -0.10899999999999999          1.0819691951947277E-012
 -0.10849999999999999          1.1368906169707682E-012
 -0.10799999999999998          1.1670130485652664E-012
 -0.10749999999999998          1.1674787715361433E-012
 -0.10699999999999998          1.1331704916603780E-012
 -0.10649999999999998          1.0588117729944459E-012
 -0.10599999999999998          9.3929172871664317E-013
 -0.10549999999999998          7.6977475247531736E-013
 -0.10499999999999998          5.4635241367727387E-013
 -0.10449999999999998          2.6626731699590000E-013
 -0.10399999999999998         -7.1504760459032985E-014
 -0.10349999999999998         -4.6559343413926130E-013
 -0.10299999999999998         -9.1212943661233276E-013
 -0.10249999999999998         -1.4039311664939527E-012
 -0.10199999999999998         -1.9305018806880947E-012
 -0.10149999999999998         -2.4775662708153024E-012
 -0.10099999999999998         -3.0272753232052472E-012
 -0.10049999999999998         -3.5583519462378097E-012
  -9.9999999999999978E-002    -4.0464570262379937E-012
  -9.9499999999999977E-002    -4.4651470848386261E-012
  -9.8999999999999977E-002    -4.7864172293596580E-012
  -9.8499999999999976E-002    -4.9821291858697056E-012
  -9.7999999999999976E-002    -5.0252364802840395E-012
  -9.7499999999999976E-002    -4.8911005273993124E-012
  -9.6999999999999975E-002    -4.5591411775410199E-012
  -9.6499999999999975E-002    -4.0139169956325302E-012
  -9.5999999999999974E-002    -3.2473305200899451E-012
  -9.5500000000000002E-002    -2.2588155785447348E-012
  -9.5000000000000001E-002    -1.0565683651506664E-012
  -9.4500000000000001E-002     3.4149909998769689E-013
  -9.4000000000000000E-002     1.9083028668933266E-012
  -9.3500000000000000E-002     3.6072483707124372E-012
  -9.2999999999999999E-002     5.3931745237770457E-012
  -9.2499999999999999E-002     7.2134181533240373E-012
  -9.1999999999999998E-002     9.0095004717821525E-012
  -9.1499999999999998E-002     1.0718731982549544E-011
  -9.0999999999999998E-002     1.2275997650702018E-011
  -9.0499999999999997E-002     1.3616764379706861E-011
  -8.9999999999999997E-002     1.4678808201545941E-011
  -8.9499999999999996E-002     1.5404524198010593E-011
  -8.8999999999999996E-002     1.5743056448988976E-011
  -8.8499999999999995E-002     1.5651940470925695E-011
  -8.7999999999999995E-002     1.5098875964025804E-011
  -8.7499999999999994E-002     1.4063169109975215E-011
  -8.6999999999999994E-002     1.2535593520618277E-011
  -8.6499999999999994E-002     1.0518412499769560E-011
  -8.5999999999999993E-002     8.0279778035176932E-012
  -8.5499999999999993E-002     5.0914368889322824E-012
  -8.4999999999999992E-002     1.7469115777964218E-012
  -8.4499999999999992E-002    -1.9556014632859370E-012
  -8.3999999999999991E-002    -5.9581743581807718E-012
  -8.3499999999999991E-002    -1.0191201625902490E-011
  -8.2999999999999990E-002    -1.4578385903285961E-011
  -8.2499999999999990E-002    -1.9036302535602184E-011
  -8.1999999999999990E-002    -2.3473085151000659E-011
  -8.1499999999999989E-002    -2.7791360145796879E-011
  -8.0999999999999989E-002    -3.1887241981962122E-011
  -8.0499999999999988E-002    -3.5650619238508602E-011
  -7.9999999999999988E-002    -3.8966912976773619E-011
  -7.9499999999999987E-002    -4.1718714452830953E-011
  -7.8999999999999987E-002    -4.3784230578581879E-011
  -7.8499999999999986E-002    -4.5043201351963464E-011
  -7.7999999999999986E-002    -4.5376710207478511E-011
  -7.7499999999999986E-002    -4.4670421057694785E-011
  -7.6999999999999985E-002    -4.2821192502732346E-011
  -7.6499999999999985E-002    -3.9740685200139636E-011
  -7.5999999999999984E-002    -3.5358579228598989E-011
  -7.5499999999999984E-002    -2.9630611334955638E-011
  -7.4999999999999983E-002    -2.2543638253012513E-011
  -7.4499999999999983E-002    -1.4118164588352346E-011
  -7.3999999999999982E-002    -4.4194837094982260E-012
  -7.3499999999999982E-002     6.4491474763612461E-012
  -7.2999999999999982E-002     1.8332353215839544E-011
  -7.2499999999999981E-002     3.1028281305837260E-011
  -7.1999999999999981E-002     4.4289816742769345E-011
  -7.1499999999999980E-002     5.7827855819488807E-011
  -7.0999999999999980E-002     7.1314752691058905E-011
  -7.0499999999999979E-002     8.4391928782525261E-011
  -6.9999999999999979E-002     9.6683604974392029E-011
  -6.9499999999999978E-002     1.0780119626095110E-010
  -6.8999999999999978E-002     1.1736567072342262E-010
  -6.8499999999999978E-002     1.2500987872221267E-010
  -6.7999999999999977E-002     1.3039878405393154E-010
  -6.7499999999999977E-002     1.3324057730528423E-010
  -6.6999999999999976E-002     1.3329615558866035E-010
  -6.6499999999999976E-002     1.3039482701557550E-010
  -6.5999999999999975E-002     1.2442875592044470E-010
  -6.5499999999999975E-002     1.1537128941680718E-010
  -6.4999999999999974E-002     1.0327145562455953E-010
  -6.4499999999999974E-002     8.8248842170667907E-011
  -6.4000000000000001E-002     7.0495772289268657E-011
  -6.3500000000000001E-002     5.0264159361137859E-011
  -6.3000000000000000E-002     2.7855606258529321E-011
  -6.2500000000000000E-002     3.6011288491273161E-012
  -6.2000000000000000E-002    -2.2133526005441845E-011
  -6.1499999999999999E-002    -4.8974978993281069E-011
  -6.0999999999999999E-002    -7.6545102714179805E-011
  -6.0499999999999998E-002    -1.0448701686597608E-010
  -5.9999999999999998E-002    -1.3245054825570670E-010
  -5.9499999999999997E-002    -1.6011978387449562E-010
  -5.8999999999999997E-002    -1.8719129584087550E-010
  -5.8499999999999996E-002    -2.1339176263004206E-010
  -5.7999999999999996E-002    -2.3845608059227071E-010
  -5.7499999999999996E-002    -2.6212955022102014E-010
  -5.6999999999999995E-002    -2.8415035947629112E-010
  -5.6499999999999995E-002    -3.0423099296924030E-010
  -5.5999999999999994E-002    -3.2204574818124064E-010
  -5.5499999999999994E-002    -3.3723543451299597E-010
  -5.4999999999999993E-002    -3.4937271077005105E-010
  -5.4499999999999993E-002    -3.5795494228921467E-010
  -5.3999999999999992E-002    -3.6243007099923977E-010
  -5.3499999999999992E-002    -3.6217272573366861E-010
  -5.2999999999999992E-002    -3.5648162478617960E-010
  -5.2499999999999991E-002    -3.4467824152547771E-010
  -5.1999999999999991E-002    -3.2599671826393978E-010
  -5.1499999999999990E-002    -2.9972109507544212E-010
  -5.0999999999999990E-002    -2.6518837254265319E-010
  -5.0499999999999989E-002    -2.2181221753480239E-010
  -4.9999999999999989E-002    -1.6915254866235151E-010
  -4.9499999999999988E-002    -1.0690982834605462E-010
  -4.8999999999999988E-002    -3.5036002784481364E-011
  -4.8499999999999988E-002     4.6310223753199956E-011
  -4.7999999999999987E-002     1.3667358323701983E-010
  -4.7499999999999987E-002     2.3528028856620797E-010
  -4.6999999999999986E-002     3.4111976594687204E-010
  -4.6499999999999986E-002     4.5272720359681362E-010
  -4.5999999999999985E-002     5.6849857984653229E-010
  -4.5499999999999985E-002     6.8642056080959476E-010
  -4.4999999999999984E-002     8.0429671304493458E-010
  -4.4499999999999984E-002     9.1971405791732963E-010
  -4.3999999999999984E-002     1.0300422888838577E-009
  -4.3499999999999983E-002     1.1326321271008240E-009
  -4.2999999999999983E-002     1.2247737762569986E-009
  -4.2499999999999982E-002     1.3037869363335467E-009
  -4.1999999999999982E-002     1.3670891551769372E-009
  -4.1499999999999981E-002     1.4121202478784664E-009
  -4.0999999999999981E-002     1.4367587147475092E-009
  -4.0499999999999980E-002     1.4391319263404528E-009
  -3.9999999999999980E-002     1.4174756721583734E-009
  -3.9499999999999980E-002     1.3706186647204044E-009
  -3.8999999999999979E-002     1.2974845363830642E-009
  -3.8499999999999979E-002     1.1977020883444947E-009
  -3.7999999999999978E-002     1.0710634625714931E-009
  -3.7499999999999978E-002     9.1775475086688706E-010
  -3.6999999999999977E-002     7.3844685471787384E-010
  -3.6499999999999977E-002     5.3432093032154990E-010
  -3.5999999999999976E-002     3.0644536595502731E-010
  -3.5499999999999976E-002     5.6520383989474997E-011
  -3.4999999999999976E-002    -2.1345923145767203E-010
  -3.4499999999999975E-002    -5.0093864700524834E-010
  -3.3999999999999975E-002    -8.0341304613886768E-010
  -3.3499999999999974E-002    -1.1183940588466110E-009
  -3.2999999999999974E-002    -1.4421265560292632E-009
  -3.2499999999999973E-002    -1.7717394715589545E-009
  -3.1999999999999973E-002    -2.1030172487799396E-009
  -3.1500000000000000E-002    -2.4326939049430587E-009
  -3.1000000000000000E-002    -2.7560136655245760E-009
  -3.0499999999999999E-002    -3.0690624632937612E-009
  -2.9999999999999999E-002    -3.3665009015524602E-009
  -2.9499999999999998E-002    -3.6436610333269676E-009
  -2.8999999999999998E-002    -3.8953037330466888E-009
  -2.8499999999999998E-002    -4.1171304104798076E-009
  -2.7999999999999997E-002    -4.3026808146271395E-009
  -2.7499999999999997E-002    -4.4471984621555552E-009
  -2.6999999999999996E-002    -4.5455644207858303E-009
  -2.6499999999999996E-002    -4.5914882846542823E-009
  -2.5999999999999995E-002    -4.5824730264041721E-009
  -2.5499999999999995E-002    -4.5134409253139837E-009
  -2.4999999999999994E-002    -4.3793083198013867E-009
  -2.4499999999999994E-002    -4.1777218627206689E-009
  -2.3999999999999994E-002    -3.9062260854917232E-009
  -2.3499999999999993E-002    -3.5634816859183960E-009
  -2.2999999999999993E-002    -3.1486233660204942E-009
  -2.2499999999999992E-002    -2.6581080380166554E-009
  -2.1999999999999992E-002    -2.0979310206108204E-009
  -2.1499999999999991E-002    -1.4678163797522032E-009
  -2.0999999999999991E-002    -7.7095060622425317E-010
  -2.0499999999999990E-002    -1.0092066598537194E-011
  -1.9999999999999990E-002     8.0756276439512983E-010
  -1.9499999999999990E-002     1.6751634659850040E-009
  -1.8999999999999989E-002     2.5912275878198892E-009
  -1.8499999999999989E-002     3.5445456457081002E-009
  -1.7999999999999988E-002     4.5248519180785815E-009
  -1.7499999999999988E-002     5.5308007732280954E-009
  -1.6999999999999987E-002     6.5404680113353668E-009
  -1.6499999999999987E-002     7.5507446124601447E-009
  -1.5999999999999986E-002     8.5533410424382582E-009
  -1.5499999999999986E-002     9.5337594392125654E-009
  -1.4999999999999986E-002     1.0475829200600188E-008
  -1.4499999999999985E-002     1.1370692902731277E-008
  -1.3999999999999985E-002     1.2203814568042919E-008
  -1.3499999999999984E-002     1.2958653289439323E-008
  -1.2999999999999984E-002     1.3626374063689644E-008
  -1.2499999999999983E-002     1.4179955641595508E-008
  -1.1999999999999983E-002     1.4621723626167862E-008
  -1.1499999999999982E-002     1.4914484319689361E-008
  -1.0999999999999982E-002     1.5047172817745394E-008
  -1.0499999999999982E-002     1.5011527749767469E-008
  -9.9999999999999811E-003     1.4770976298680577E-008
  -9.4999999999999807E-003     1.4321255154431632E-008
  -8.9999999999999802E-003     1.3620672536472583E-008
  -8.4999999999999798E-003     1.2671238962335391E-008
  -7.9999999999999793E-003     1.1431968369108072E-008
  -7.4999999999999789E-003     9.9048086300735344E-009
  -6.9999999999999785E-003     8.0441577754802919E-009
  -6.4999999999999780E-003     5.8525014505309245E-009
  -5.9999999999999776E-003     3.2801679775888541E-009
  -5.4999999999999771E-003     3.4571908241942922E-010
  -4.9999999999999767E-003    -2.9822882011302355E-009
  -4.4999999999999762E-003    -6.7265435040601727E-009
  -3.9999999999999758E-003    -1.0873800259756260E-008
  -3.4999999999999754E-003    -1.5454095204483300E-008
  -2.9999999999999749E-003    -2.0456229416587292E-008
  -2.4999999999999745E-003    -2.5909828286366325E-008
  -1.9999999999999740E-003    -3.1800491729609810E-008
  -1.4999999999999736E-003    -3.8109212547843972E-008
  -9.9999999999997313E-004    -4.4849176159489730E-008
  -4.9999999999997269E-004    -5.2042989713927945E-008
   0.0000000000000000         -5.9627291447653477E-008
   5.0000000000000044E-004    -6.7666795897948512E-008
   1.0000000000000009E-003    -7.6104662436872645E-008
   1.5000000000000013E-003    -8.4974658593949225E-008
   2.0000000000000018E-003    -9.4193953307296212E-008
   2.5000000000000022E-003    -1.0384170101662864E-007
   3.0000000000000027E-003    -1.1392372949610347E-007
   3.5000000000000031E-003    -1.2436744563620257E-007
   4.0000000000000036E-003    -1.3521837506314387E-007
   4.5000000000000040E-003    -1.4653933155898623E-007
   5.0000000000000044E-003    -1.5824432791948861E-007
   5.5000000000000049E-003    -1.7040239087826573E-007
   6.0000000000000053E-003    -1.8296131782894073E-007
   6.5000000000000058E-003    -1.9609546913901610E-007
   7.0000000000000062E-003    -2.0977912917326083E-007
   7.5000000000000067E-003    -2.2397627210884146E-007
   8.0000000000000071E-003    -2.3863420311634639E-007
   8.5000000000000075E-003    -2.5403014631176054E-007
   9.0000000000000080E-003    -2.7012670975770673E-007
   9.5000000000000084E-003    -2.8691845969004810E-007
   1.0000000000000009E-002    -3.0451864177587458E-007
   1.0500000000000009E-002    -3.2303019060859752E-007
   1.1000000000000010E-002    -3.4225123234270498E-007
   1.1500000000000010E-002    -3.6277121240120162E-007
   1.2000000000000011E-002    -3.8424778411596074E-007
   1.2500000000000011E-002    -4.0705155457423107E-007
   1.3000000000000012E-002    -4.3128824040821928E-007
   1.3500000000000012E-002    -4.5706931005349764E-007
   1.4000000000000012E-002    -4.8422762881238571E-007
   1.4500000000000013E-002    -5.1337082334069885E-007
   1.5000000000000013E-002    -5.4419448222659329E-007
   1.5500000000000014E-002    -5.7704795063251637E-007
   1.6000000000000014E-002    -6.1233031852778212E-007
   1.6500000000000015E-002    -6.4973842679663338E-007
   1.7000000000000015E-002    -6.8968207834469639E-007
   1.7500000000000016E-002    -7.3236631361922233E-007
   1.8000000000000016E-002    -7.7821348539964382E-007
   1.8500000000000016E-002    -8.2696754674780515E-007
   1.9000000000000017E-002    -8.7883551834134236E-007
   1.9500000000000017E-002    -9.3412127660610223E-007
   2.0000000000000018E-002    -9.9380018549913349E-007
   2.0500000000000018E-002    -1.0570262112440710E-006
   2.1000000000000019E-002    -1.1240563218067993E-006
   2.1500000000000019E-002    -1.1962946931092467E-006
   2.2000000000000020E-002    -1.2730869452440451E-006
   2.2500000000000020E-002    -1.3549043158489180E-006
   2.3000000000000020E-002    -1.4423217799788303E-006
   2.3500000000000021E-002    -1.5357936091045745E-006
   2.4000000000000021E-002    -1.6353222648218144E-006
   2.4500000000000022E-002    -1.7408651397854096E-006
   2.5000000000000022E-002    -1.8533847564169667E-006
   2.5500000000000023E-002    -1.9737237480676805E-006
   2.6000000000000023E-002    -2.1022426062606258E-006
   2.6500000000000024E-002    -2.2400751990855582E-006
   2.7000000000000024E-002    -2.3862356269566547E-006
   2.7500000000000024E-002    -2.5414809085586609E-006
   2.8000000000000025E-002    -2.7064648337236999E-006
   2.8500000000000025E-002    -2.8835703186305223E-006
   2.9000000000000026E-002    -3.0705529178362363E-006
   2.9500000000000026E-002    -3.2705362345173175E-006
   3.0000000000000027E-002    -3.4824216403261442E-006
   3.0500000000000027E-002    -3.7088336381237632E-006
   3.1000000000000028E-002    -3.9488714493917812E-006
   3.1500000000000028E-002    -4.2066198890112513E-006
   3.2000000000000028E-002    -4.4772192673305375E-006