 -0.23999999999999999          0.0000000000000000     
 -0.23949999999999999          0.0000000000000000     
 -0.23899999999999999          0.0000000000000000     
 -0.23849999999999999          0.0000000000000000     
 -0.23799999999999999          0.0000000000000000     
 -0.23749999999999999         -1.7302574107420195E-022
 -0.23699999999999999         -1.7462845963816490E-021
 -0.23649999999999999         -9.4511290818861717E-021
 -0.23599999999999999         -3.6284249648320436E-020
 -0.23549999999999999         -1.1037125339316017E-019
 -0.23499999999999999         -2.8183593325413991E-019
 -0.23449999999999999         -6.2515159294982507E-019
 -0.23399999999999999         -1.2304313018529642E-018
 -0.23349999999999999         -2.1767989111715746E-018
 -0.23299999999999998         -3.4835953894547308E-018
 -0.23249999999999998         -5.0413288177316086E-018
 -0.23199999999999998         -6.5334537054224369E-018
 -0.23149999999999998         -7.3704676577041471E-018
 -0.23099999999999998         -6.6663632982280438E-018
 -0.23049999999999998         -3.2906861630366239E-018
 -0.22999999999999998          3.9759422121589112E-018
 -0.22949999999999998          1.6170621659917184E-017
 -0.22899999999999998          3.3774387439006757E-017
 -0.22849999999999998          5.6280448756228814E-017
 -0.22799999999999998          8.1780968847649288E-017
 -0.22749999999999998          1.0667357173395568E-016
 -0.22699999999999998          1.2559869615376986E-016
 -0.22649999999999998          1.3170845290480704E-016
 -0.22599999999999998          1.1733355201967889E-016
 -0.22549999999999998          7.5059191037074538E-017
 -0.22499999999999998         -8.5102522866752781E-019
 -0.22449999999999998         -1.1282227429997298E-016
 -0.22399999999999998         -2.5833906888394636E-016
 -0.22349999999999998         -4.2858649724448516E-016
 -0.22299999999999998         -6.0765544486909221E-016
 -0.22249999999999998         -7.7259390097606103E-016
 -0.22199999999999998         -8.9453218073977282E-016
 -0.22150000000000000         -9.4101189486204907E-016
 -0.22100000000000000         -8.7951042729470791E-016
 -0.22050000000000000         -6.8198653818106079E-016
 -0.22000000000000000         -3.3008075803748554E-016
 -0.21950000000000000          1.7957475923701512E-016
 -0.21900000000000000          8.3064736306468584E-016
 -0.21850000000000000          1.5838062854028774E-015
 -0.21800000000000000          2.3756662917545222E-015
 -0.21750000000000000          3.1207037333445002E-015
 -0.21700000000000000          3.7166412098999434E-015
 -0.21650000000000000          4.0534243938823311E-015
 -0.21600000000000000          4.0254191759656367E-015
 -0.21550000000000000          3.5458812713340708E-015
 -0.21500000000000000          2.5621988444656650E-015
 -0.21450000000000000          1.0699147883886388E-015
 -0.21400000000000000         -8.7671316235339160E-016
 -0.21350000000000000         -3.1598202091774840E-015
 -0.21299999999999999         -5.6005249729108412E-015
 -0.21249999999999999         -7.9700186279012966E-015
 -0.21199999999999999         -1.0009063729907308E-014
 -0.21149999999999999         -1.1454508625509610E-014
 -0.21099999999999999         -1.2070101342521745E-014
 -0.21049999999999999         -1.1677796104717183E-014
 -0.20999999999999999         -1.0185128867646891E-014
 -0.20949999999999999         -7.6042210054234291E-015
 -0.20899999999999999         -4.0587558664048757E-015
 -0.20849999999999999          2.2326204708202326E-016
 -0.20799999999999999          4.9310841791925193E-015
 -0.20749999999999999          9.7049509627974466E-015
 -0.20699999999999999          1.4177546353060589E-014
 -0.20649999999999999          1.8017064424903979E-014
 -0.20599999999999999          2.0964942003235996E-014
 -0.20549999999999999          2.2861670927414824E-014
 -0.20499999999999999          2.3655634633686450E-014
 -0.20449999999999999          2.3392555262272790E-014
 -0.20399999999999999          2.2186499253604074E-014
 -0.20349999999999999          2.0176867381708321E-014
 -0.20299999999999999          1.7478927946603554E-014
 -0.20249999999999999          1.4137495703755593E-014
 -0.20199999999999999          1.0093831380486871E-014
 -0.20149999999999998          5.1746406436711874E-015
 -0.20099999999999998         -8.9095900191078280E-016
 -0.20049999999999998         -8.4249104320923666E-015
 -0.19999999999999998         -1.7727632338023753E-014
 -0.19949999999999998         -2.8987796246169426E-014
 -0.19899999999999998         -4.2186942916727713E-014
 -0.19849999999999998         -5.7013681762633402E-014
 -0.19799999999999998         -7.2802387685346990E-014
 -0.19749999999999998         -8.8509058984218003E-014
 -0.19699999999999998         -1.0273271472678198E-013
 -0.19649999999999998         -1.1378473839737591E-013
 -0.19600000000000001         -1.1980228775029429E-013
 -0.19550000000000001         -1.1889583022353807E-013
 -0.19500000000000001         -1.0931605823995788E-013
 -0.19450000000000001         -8.9623355528439905E-014
 -0.19400000000000001         -5.8842671861899918E-014
 -0.19350000000000001         -1.6589561828120997E-014
 -0.19300000000000000          3.6842011176347591E-014
 -0.19250000000000000          1.0043400637139622E-013
 -0.19200000000000000          1.7243816239969251E-013
 -0.19150000000000000          2.5040222680283701E-013
 -0.19100000000000000          3.3121790474228206E-013
 -0.19050000000000000          4.1118015332636745E-013
 -0.19000000000000000          4.8604949036763408E-013
 -0.18950000000000000          5.5111393477396966E-013
 -0.18900000000000000          6.0125418386115785E-013
 -0.18850000000000000          6.3102290620513770E-013
 -0.18800000000000000          6.3475420320275518E-013
 -0.18750000000000000          6.0672479292507940E-013
 -0.18700000000000000          5.4138761119905312E-013
 -0.18650000000000000          4.3369568953116622E-013
 -0.18600000000000000          2.7952685799795878E-013
 -0.18550000000000000          7.6207073143033307E-014
 -0.18500000000000000         -1.7688172601155176E-013
 -0.18450000000000000         -4.7764076477049275E-013
 -0.18400000000000000         -8.2058440622749401E-013
 -0.18350000000000000         -1.1962173057078322E-012
 -0.18300000000000000         -1.5905220251870958E-012
 -0.18250000000000000         -1.9846234233020341E-012
 -0.18200000000000000         -2.3546895079216967E-012
 -0.18149999999999999         -2.6721206285248388E-012
 -0.18099999999999999         -2.9040577516080803E-012
 -0.18049999999999999         -3.0142250238356235E-012
 -0.17999999999999999         -2.9640951213014815E-012
 -0.17949999999999999         -2.7143423255791311E-012
 -0.17899999999999999         -2.2265256290353781E-012
 -0.17849999999999999         -1.4649248504573074E-012
 -0.17799999999999999         -3.9844190760635462E-013
 -0.17749999999999999          9.9753397537398799E-013
 -0.17699999999999999          2.7393912494500243E-012
 -0.17649999999999999          4.8337850955820140E-012
 -0.17599999999999999          7.2764294946668144E-012
 -0.17549999999999999          1.0051258826462112E-011
 -0.17499999999999999          1.3129988549422957E-011
 -0.17449999999999999          1.6472127065726081E-011
 -0.17399999999999999          2.0025406026525180E-011
 -0.17349999999999999          2.3726645568059798E-011
 -0.17299999999999999          2.7503015271187310E-011
 -0.17249999999999999          3.1273647049355752E-011
 -0.17199999999999999          3.4951582194426905E-011
 -0.17149999999999999          3.8445968013862958E-011
 -0.17099999999999999          4.1664494215930340E-011
 -0.17049999999999998          4.4516014885147728E-011
 -0.16999999999999998          4.6913258992767130E-011
 -0.16949999999999998          4.8775666382854476E-011
 -0.16899999999999998          5.0032234053633271E-011
 -0.16849999999999998          5.0624266506392160E-011
 -0.16799999999999998          5.0508109012858344E-011
 -0.16749999999999998          4.9657554592484693E-011
 -0.16699999999999998          4.8066119171488510E-011
 -0.16649999999999998          4.5748780778820549E-011
 -0.16599999999999998          4.2743284582151370E-011
 -0.16549999999999998          3.9111024689172278E-011
 -0.16499999999999998          3.4936974562243124E-011
 -0.16449999999999998          3.0329333990277167E-011
 -0.16399999999999998          2.5418194768815416E-011
 -0.16349999999999998          2.0353484115711066E-011
 -0.16299999999999998          1.5302658690202874E-011
 -0.16249999999999998          1.0447416795990173E-011
 -0.16199999999999998          5.9803402443282965E-012
 -0.16149999999999998          2.1011141890808554E-012
 -0.16099999999999998         -9.8714777093083383E-013
 -0.16049999999999998         -3.0815112553720491E-012
 -0.15999999999999998         -3.9828435569028647E-012
 -0.15949999999999998         -3.4983955472516346E-012
 -0.15899999999999997         -1.4446027437208587E-012
 -0.15849999999999997          2.3511524573105139E-012
 -0.15799999999999997          8.0494153535902619E-012
 -0.15749999999999997          1.5797833737073679E-011
 -0.15699999999999997          2.5731252603491378E-011
 -0.15649999999999997          3.7971641542544697E-011
 -0.15599999999999997          5.2629636686994514E-011
 -0.15549999999999997          6.9805021280165948E-011
 -0.15499999999999997          8.9588465222140888E-011
 -0.15449999999999997          1.1206323111851170E-010
 -0.15399999999999997          1.3730663385312692E-010
 -0.15349999999999997          1.6539295855484385E-010
 -0.15299999999999997          1.9639558079987416E-010
 -0.15249999999999997          2.3038850956974640E-010
 -0.15200000000000000          2.6745158381925165E-010
 -0.15150000000000000          3.0767223408989739E-010
 -0.15100000000000000          3.5115030027196547E-010
 -0.15049999999999999          3.9800051690353490E-010
 -0.14999999999999999          4.4835806373846897E-010
 -0.14949999999999999          5.0238106792219332E-010
 -0.14899999999999999          5.6025568725687958E-010
 -0.14849999999999999          6.2219789420474899E-010
 -0.14799999999999999          6.8845729396595844E-010
 -0.14749999999999999          7.5931784573774133E-010
 -0.14699999999999999          8.3509997121536222E-010
 -0.14649999999999999          9.1615780418890506E-010
 -0.14599999999999999          1.0028813115974702E-009
 -0.14549999999999999          1.0956911064185571E-009
 -0.14499999999999999          1.1950371671966994E-009
 -0.14449999999999999          1.3013961689590641E-009
 -0.14399999999999999          1.4152665373441113E-009
 -0.14349999999999999          1.5371676557308434E-009
 -0.14299999999999999          1.6676333690265063E-009
 -0.14249999999999999          1.8072148613324049E-009
 -0.14199999999999999          1.9564778015094623E-009
 -0.14149999999999999          2.1160028728044280E-009
 -0.14099999999999999          2.2863920620615670E-009
 -0.14049999999999999          2.4682662474476939E-009
 -0.13999999999999999          2.6622727201405565E-009
 -0.13949999999999999          2.8690925458733457E-009
 -0.13899999999999998          3.0894465068161941E-009
 -0.13849999999999998          3.3241040216975713E-009
 -0.13799999999999998          3.5738923634734010E-009
 -0.13749999999999998          3.8396974183887539E-009
 -0.13699999999999998          4.1224772691113955E-009
 -0.13649999999999998          4.4232731621041930E-009
 -0.13599999999999998          4.7432041537991111E-009
 -0.13550000000000001          5.0834904556132385E-009
 -0.13500000000000001          5.4454407984619850E-009
 -0.13450000000000001          5.8304714467320266E-009
 -0.13400000000000001          6.2401053015765074E-009
 -0.13350000000000001          6.6759723321770388E-009
 -0.13300000000000001          7.1398187359103025E-009
 -0.13250000000000001          7.6335014740375061E-009
 -0.13200000000000001          8.1590052580684484E-009
 -0.13150000000000001          8.7184343427082650E-009
 -0.13100000000000001          9.3140283054717640E-009
 -0.13050000000000000          9.9481519430625359E-009
 -0.13000000000000000          1.0623298934839535E-008
 -0.12950000000000000          1.1342125192221677E-008
 -0.12900000000000000          1.2107416403809189E-008
 -0.12850000000000000          1.2922113688861258E-008
 -0.12800000000000000          1.3789339289553431E-008
 -0.12750000000000000          1.4712367621969859E-008
 -0.12700000000000000          1.5694658006566411E-008
 -0.12650000000000000          1.6739871086315137E-008
 -0.12600000000000000          1.7851876419586578E-008
 -0.12550000000000000          1.9034758416670284E-008
 -0.12499999999999999          2.0292857047123135E-008
 -0.12449999999999999          2.1630742644167105E-008
 -0.12399999999999999          2.3053276447765042E-008
 -0.12349999999999998          2.4565604741943306E-008
 -0.12299999999999998          2.6173178668645234E-008
 -0.12249999999999998          2.7881778081451611E-008
 -0.12199999999999998          2.9697529322846910E-008
 -0.12149999999999998          3.1626911488583438E-008
 -0.12099999999999998          3.3676804554808481E-008
 -0.12049999999999998          3.5854474116605444E-008
 -0.12000000000000000          3.8167623182148139E-008
 -0.11950000000000000          4.0624387411756183E-008
 -0.11899999999999999          4.3233376000221547E-008
 -0.11849999999999999          4.6003673999897590E-008
 -0.11799999999999999          4.8944921261338752E-008
 -0.11749999999999999          5.2067267135774009E-008
 -0.11699999999999999          5.5381484619920386E-008
 -0.11649999999999999          5.8898972856794335E-008
 -0.11599999999999999          6.2631683461171869E-008
 -0.11549999999999999          6.6592337212559540E-008
 -0.11499999999999999          7.0794357613593688E-008
 -0.11449999999999999          7.5252019820830890E-008
 -0.11399999999999999          7.9980301646350089E-008
 -0.11349999999999999          8.4995115872457152E-008
 -0.11299999999999999          9.0313235624028126E-008
 -0.11249999999999999          9.5952324447293134E-008
 -0.11199999999999999          1.0193114142414582E-007
 -0.11149999999999999          1.0826945592225876E-007
 -0.11099999999999999          1.1498803256060985E-007
 -0.11049999999999999          1.2210888965049202E-007
 -0.10999999999999999          1.2965509237220244E-007
 -0.10949999999999999          1.3765100660235648E-007
 -0.10899999999999999          1.4612242704661712E-007
 -0.10849999999999999          1.5509639787778425E-007
 -0.10799999999999998          1.6460150068474812E-007
 -0.10749999999999998          1.7466780813631656E-007
 -0.10699999999999998          1.8532697882549865E-007
 -0.10649999999999998          1.9661239861187048E-007
 -0.10599999999999998          2.0855935662155008E-007
 -0.10549999999999998          2.2120499210514969E-007
 -0.10499999999999998          2.3458830095858000E-007
 -0.10449999999999998          2.4875072320253789E-007
 -0.10399999999999998          2.6373590707044363E-007
 -0.10349999999999998          2.7958957957872683E-007
 -0.10299999999999998          2.9636008640271470E-007
 -0.10249999999999998          3.1409834726953851E-007
 -0.10199999999999998          3.3285820865105487E-007
 -0.10149999999999998          3.5269623771574552E-007
 -0.10099999999999998          3.7367190183405153E-007
 -0.10049999999999998          3.9584779974160053E-007
  -9.9999999999999978E-002     4.1928990065605777E-007
  -9.9499999999999977E-002     4.4406730457014412E-007
  -9.8999999999999977E-002     4.7025307021290405E-007
  -9.8499999999999976E-002     4.9792405460278289E-007
  -9.7999999999999976E-002     5.2716054012311499E-007
  -9.7499999999999976E-002     5.5804769783466956E-007
  -9.6999999999999975E-002     5.9067409254542458E-007
  -9.6499999999999975E-002     6.2513350229606092E-007
  -9.5999999999999974E-002     6.6152443636496676E-007
  -9.5500000000000002E-002     6.9995046942971853E-007
  -9.5000000000000001E-002     7.4051938319215096E-007
  -9.4500000000000001E-002     7.8334592152101760E-007
  -9.4000000000000000E-002     8.2854971534751762E-007
  -9.3500000000000000E-002     8.7625717470982531E-007
  -9.2999999999999999E-002     9.2660033032836861E-007
  -9.2499999999999999E-002     9.7971810298134711E-007
  -9.1999999999999998E-002     1.0357565695112884E-006
  -9.1499999999999998E-002     1.0948683799305941E-006
  -9.0999999999999998E-002     1.1572154581866957E-006
  -9.0499999999999997E-002     1.2229658326268138E-006
  -8.9999999999999997E-002     1.2922974508493673E-006
  -8.9499999999999996E-002     1.3653959398169375E-006
  -8.8999999999999996E-002     1.4424570572614661E-006
  -8.8499999999999995E-002     1.5236850445052950E-006
  -8.7999999999999995E-002     1.6092941728143595E-006
  -8.7499999999999994E-002     1.6995100829764536E-006
  -8.6999999999999994E-002     1.7945692085409752E-006
  -8.6499999999999994E-002     1.8947167877517797E-006
  -8.5999999999999993E-002     2.0002144997018317E-006
  -8.5499999999999993E-002     2.1113335832879446E-006
  -8.4999999999999992E-002     2.2283572454231107E-006
  -8.4499999999999992E-002     2.3515843556411131E-006
  -8.3999999999999991E-002     2.4813268583814728E-006
  -8.3499999999999991E-002     2.6179128839229650E-006
  -8.2999999999999990E-002     2.7616849484689155E-006
  -8.2499999999999990E-002     2.9130026019231650E-006
  -8.1999999999999990E-002     3.0722401323586252E-006
  -8.1499999999999989E-002     3.2397906814835316E-006
  -8.0999999999999989E-002     3.4160654452452178E-006
  -8.0499999999999988E-002     3.6014964907805137E-006
  -7.9999999999999988E-002     3.7965345188493717E-006
  -7.9499999999999987E-002     4.0016503407135753E-006
  -7.8999999999999987E-002     4.2173350164491318E-006
  -7.8499999999999986E-002     4.4441092646938387E-006
  -7.7999999999999986E-002     4.6825097732144715E-006
  -7.7499999999999986E-002     4.9331041802935483E-006
  -7.6999999999999985E-002     5.1964767981678278E-006
  -7.6499999999999985E-002     5.4732438265044275E-006
  -7.5999999999999984E-002     5.7640500795538844E-006
  -7.5499999999999984E-002     6.0695690507132861E-006
  -7.4999999999999983E-002     6.3905043168356235E-006
  -7.4499999999999983E-002     6.7275918310495102E-006
  -7.3999999999999982E-002     7.0815955165439285E-006
  -7.3499999999999982E-002     7.4533178985558338E-006
  -7.2999999999999982E-002     7.8435906495664414E-006
  -7.2499999999999981E-002     8.2532904468759588E-006
  -7.1999999999999981E-002     8.6833294424495943E-006
  -7.1499999999999980E-002     9.1346543498456577E-006
  -7.0999999999999980E-002     9.6082554558196550E-006
  -7.0499999999999979E-002     1.0105170325495548E-005
  -6.9999999999999979E-002     1.0626487543101010E-005
  -6.9499999999999978E-002     1.1173327654161655E-005
  -6.8999999999999978E-002     1.1746857005530319E-005
  -6.8499999999999978E-002     1.2348316094921015E-005
  -6.7999999999999977E-002     1.2978973238250248E-005
  -6.7499999999999977E-002     1.3640160977117973E-005
  -6.6999999999999976E-002     1.4333265131423553E-005
  -6.6499999999999976E-002     1.5059735197481361E-005
  -6.5999999999999975E-002     1.5821072235623492E-005
  -6.5499999999999975E-002     1.6618844405416926E-005
  -6.4999999999999974E-002     1.7454693318158330E-005
  -6.4499999999999974E-002     1.8330305014072084E-005
  -6.4000000000000001E-002     1.9247465283895587E-005
  -6.3500000000000001E-002     2.0208011459421208E-005
  -6.3000000000000000E-002     2.1213873767812012E-005
  -6.2500000000000000E-002     2.2267040359535371E-005
  -6.2000000000000000E-002     2.3369586214353501E-005
  -6.1499999999999999E-002     2.4523681048745538E-005
  -6.0999999999999999E-002     2.5731574035736149E-005
  -6.0499999999999998E-002     2.6995600654745446E-005
  -5.9999999999999998E-002     2.8318192293208235E-005
  -5.9499999999999997E-002     2.9701881909583622E-005
  -5.8999999999999997E-002     3.1149312524573789E-005
  -5.8499999999999996E-002     3.2663198489218160E-005
  -5.7999999999999996E-002     3.4246387829089573E-005
  -5.7499999999999996E-002     3.5901832213132412E-005
  -5.6999999999999995E-002     3.7632609640318962E-005
  -5.6499999999999995E-002     3.9441867579452389E-005
  -5.5999999999999994E-002     4.1332952842451008E-005
  -5.5499999999999994E-002     4.3309280901713133E-005
  -5.4999999999999993E-002     4.5374416726004917E-005
  -5.4499999999999993E-002     4.7532064236143875E-005
  -5.3999999999999992E-002     4.9786085373738638E-005
  -5.3499999999999992E-002     5.2140444047037176E-005
  -5.2999999999999992E-002     5.4599292914755029E-005
  -5.2499999999999991E-002     5.7166886855229690E-005
  -5.1999999999999991E-002     5.9847708305064108E-005
  -5.1499999999999990E-002     6.2646355784356372E-005
  -5.0999999999999990E-002     6.5567608667671932E-005
  -5.0499999999999989E-002     6.8616417921617040E-005
  -4.9999999999999989E-002     7.1797925312528955E-005
  -4.9499999999999988E-002     7.5117462253655200E-005
  -4.8999999999999988E-002     7.8580547412158351E-005
  -4.8499999999999988E-002     8.2192917471642335E-005
  -4.7999999999999987E-002     8.5960456789079974E-005
  -4.7499999999999987E-002     8.9889298997867324E-005
  -4.6999999999999986E-002     9.3985812095554827E-005
  -4.6499999999999986E-002     9.8256548641811143E-005
  -4.5999999999999985E-002     1.0270833965223119E-004
  -4.5499999999999985E-002     1.0734815061877817E-004
  -4.4999999999999984E-002     1.1218329660931094E-004
  -4.4499999999999984E-002     1.1722137871364357E-004
  -4.3999999999999984E-002     1.2247010578707830E-004
  -4.3499999999999983E-002     1.2793751781507218E-004
  -4.2999999999999983E-002     1.3363205434331019E-004
  -4.2499999999999982E-002     1.3956221128657301E-004
  -4.1999999999999982E-002     1.4573693045484229E-004
  -4.1499999999999981E-002     1.5216539052535750E-004
  -4.0999999999999981E-002     1.5885711710572002E-004
  -4.0499999999999980E-002     1.6582197170900706E-004
  -3.9999999999999980E-002     1.7307000768275747E-004
  -3.9499999999999980E-002     1.8061173488396614E-004
  -3.8999999999999979E-002     1.8845796228221913E-004
  -3.8499999999999979E-002     1.9661987465975108E-004
  -3.7999999999999978E-002     2.0510896559837889E-004
  -3.7499999999999978E-002     2.1393699789687626E-004
  -3.6999999999999977E-002     2.2311628100439031E-004
  -3.6499999999999977E-002     2.3265947504141459E-004
  -3.5999999999999976E-002     2.4257962946343627E-004
  -3.5499999999999976E-002     2.5289021704645272E-004
  -3.4999999999999976E-002     2.6360498973604504E-004
  -3.4499999999999975E-002     2.7473833459128844E-004
  -3.3999999999999975E-002     2.8630487846424495E-004
  -3.3499999999999974E-002     2.9831981027055889E-004
  -3.2999999999999974E-002     3.1079879317120226E-004
  -3.2499999999999973E-002     3.2375793353263036E-004
  -3.1999999999999973E-002     3.3721384286607506E-004
  -3.1500000000000000E-002     3.5118349405885928E-004
  -3.1000000000000000E-002     3.6568437696665084E-004
  -3.0499999999999999E-002     3.8073461899680236E-004
  -2.9999999999999999E-002     3.9635288610205999E-004
  -2.9499999999999998E-002     4.1255807986683953E-004
  -2.8999999999999998E-002     4.2937016231118651E-004
  -2.8499999999999998E-002     4.4680910835326565E-004
  -2.7999999999999997E-002     4.6489577642733117E-004
  -2.7499999999999997E-002     4.8365148655651067E-004
  -2.6999999999999996E-002     5.0309856368356228E-004
  -2.6499999999999996E-002     5.2325906964380210E-004
  -2.5999999999999995E-002     5.4415645148329114E-004
  -2.5499999999999995E-002     5.6581458882026228E-004
  -2.4999999999999994E-002     5.8825776414051889E-004
  -2.4499999999999994E-002     6.1151091520419715E-004
  -2.3999999999999994E-002     6.3560029547552019E-004
  -2.3499999999999993E-002     6.6055198085007791E-004
  -2.2999999999999993E-002     6.8639327835922845E-004
  -2.2499999999999992E-002     7.1315152759887060E-004
  -2.1999999999999992E-002     7.4085567816269690E-004
  -2.1499999999999991E-002     7.6953497698183256E-004
  -2.0999999999999991E-002     7.9921914657080464E-004
  -2.0499999999999990E-002     8.2993909922918739E-004
  -1.9999999999999990E-002     8.6172626951050478E-004
  -1.9499999999999990E-002     8.9461241519225463E-004
  -1.8999999999999989E-002     9.2863133385649114E-004
  -1.8499999999999989E-002     9.6381695757813803E-004
  -1.7999999999999988E-002     1.0002031173130628E-003
  -1.7499999999999988E-002     1.0378255721772913E-003
  -1.6999999999999987E-002     1.0767202949463661E-003
  -1.6499999999999987E-002     1.1169252785974623E-003
  -1.5999999999999986E-002     1.1584774529783469E-003
  -1.5499999999999986E-002     1.2014161494176522E-003
  -1.4999999999999986E-002     1.2457812137616421E-003
  -1.4499999999999985E-002     1.2916130007763842E-003
  -1.3999999999999985E-002     1.3389519986751822E-003
  -1.3499999999999984E-002     1.3878415218486991E-003
  -1.2999999999999984E-002     1.4383246061727716E-003
  -1.2499999999999983E-002     1.4904447942530150E-003
  -1.1999999999999983E-002     1.5442479124800307E-003
  -1.1499999999999982E-002     1.5997791040896774E-003
  -1.0999999999999982E-002     1.6570866458400762E-003
  -1.0499999999999982E-002     1.7162174692701166E-003
  -9.9999999999999811E-003     1.7772204054978102E-003
  -9.4999999999999807E-003     1.8401450085295231E-003
  -8.9999999999999802E-003     1.9050418144484415E-003
  -8.4999999999999798E-003     1.9719620405212017E-003
  -7.9999999999999793E-003     2.0409583878328178E-003
  -7.4999999999999789E-003     2.1120842111481105E-003
  -6.9999999999999785E-003     2.1853952167155315E-003
  -6.4999999999999780E-003     2.2609462596930325E-003
  -5.9999999999999776E-003     2.3387936080026530E-003
  -5.4999999999999771E-003     2.4189950620972546E-003
  -4.9999999999999767E-003     2.5016095081598876E-003
  -4.4999999999999762E-003     2.5866955410559075E-003
  -3.9999999999999758E-003     2.6743140970040694E-003
  -3.4999999999999754E-003     2.7645260409346331E-003
  -2.9999999999999749E-003     2.8573933797683918E-003
  -2.4999999999999745E-003     2.9529787024434786E-003
  -1.9999999999999740E-003     3.0513482199893234E-003
  -1.4999999999999736E-003     3.1525659132564127E-003
  -9.9999999999997313E-004     3.2566972046386752E-003
  -4.9999999999997269E-004     3.3638120482609637E-003
   0.0000000000000000          3.4739757495967014E-003
   5.0000000000000044E-004     3.5872564727969965E-003
   1.0000000000000009E-003     3.7037259882011699E-003
   1.5000000000000013E-003     3.8234538586516039E-003
   2.0000000000000018E-003     3.9465119298823913E-003
   2.5000000000000022E-003     4.0729738981712411E-003
   3.0000000000000027E-003     4.2029105372773969E-003
   3.5000000000000031E-003     4.3363993465963171E-003
   4.0000000000000036E-003     4.4735128432694931E-003
   4.5000000000000040E-003     4.6143274598962510E-003
   5.0000000000000044E-003     4.7589204381355728E-003
   5.5000000000000049E-003     4.9073685654150122E-003
   6.0000000000000053E-003     5.0597496234703505E-003
   6.5000000000000058E-003     5.2161427802799500E-003
   7.0000000000000062E-003     5.3766277946305473E-003
   7.5000000000000067E-003     5.5412841460815623E-003
   8.0000000000000071E-003     5.7101908501057848E-003
   8.5000000000000075E-003     5.8834311020985013E-003
   9.0000000000000080E-003     6.0610868630913070E-003
   9.5000000000000084E-003     6.2432399204269719E-003
   1.0000000000000009E-002     6.4299717412539051E-003
   1.0500000000000009E-002     6.6213643033561781E-003
   1.1000000000000010E-002     6.8175071663358969E-003
   1.1500000000000010E-002     7.0184762340098628E-003
   1.2000000000000011E-002     7.2243615499009740E-003
   1.2500000000000011E-002     7.4352453509267460E-003
   1.3000000000000012E-002     7.6512127273173254E-003
   1.3500000000000012E-002     7.8723521762162803E-003
   1.4000000000000012E-002     8.0987515246157132E-003
   1.4500000000000013E-002     8.3304880655495073E-003
   1.5000000000000013E-002     8.5676503983583251E-003
   1.5500000000000014E-002     8.8103264878473565E-003
   1.6000000000000014E-002     9.0585973666548365E-003
   1.6500000000000015E-002     9.3125497818337157E-003
   1.7000000000000015E-002     9.5722681711858174E-003
   1.7500000000000016E-002     9.8378397248703731E-003
   1.8000000000000016E-002     1.0109345259199081E-002
   1.8500000000000016E-002     1.0386869049517272E-002
   1.9000000000000017E-002     1.0670498149830353E-002
   1.9500000000000017E-002     1.0960315226225932E-002
   2.0000000000000018E-002     1.1256403641217633E-002
   2.0500000000000018E-002     1.1558842637622177E-002
   2.1000000000000019E-002     1.1867712052846459E-002
   2.1500000000000019E-002     1.2183091044804424E-002
   2.2000000000000020E-002     1.2505064582998146E-002
   2.2500000000000020E-002     1.2833707730502499E-002
   2.3000000000000020E-002     1.3169093961488250E-002
   2.3500000000000021E-002     1.3511309950364730E-002
   2.4000000000000021E-002     1.3860416072019315E-002
   2.4500000000000022E-002     1.4216493445200519E-002
   2.5000000000000022E-002     1.4579614078233709E-002
   2.5500000000000023E-002     1.4949851772956914E-002
   2.6000000000000023E-002     1.5327269823496470E-002
   2.6500000000000024E-002     1.5711937343130394E-002
   2.7000000000000024E-002     1.6103922901639318E-002
   2.7500000000000024E-002     1.6503286226387234E-002
   2.8000000000000025E-002     1.6910088037223076E-002
   2.8500000000000025E-002     1.7324395461201583E-002
   2.9000000000000026E-002     1.7746258701078953E-002
   2.9500000000000026E-002     1.8175739752164417E-002
   3.0000000000000027E-002     1.8612879243105167E-002
   3.0500000000000027E-002     1.9057743273057919E-002
   3.1000000000000028E-002     1.9510380418723328E-002
   3.1500000000000028E-002     1.9970817482796499E-002
   3.2000000000000028E-002     2.0439110470455248E-002