 -0.23999999999999999          0.0000000000000000     
 -0.23949999999999999          0.0000000000000000     
 -0.23899999999999999          0.0000000000000000     
 -0.23849999999999999          0.0000000000000000     
 -0.23799999999999999          0.0000000000000000     
 -0.23749999999999999          0.0000000000000000     
 -0.23699999999999999          0.0000000000000000     
 -0.23649999999999999          0.0000000000000000     
 -0.23599999999999999          0.0000000000000000     
 -0.23549999999999999         -2.2373807921078874E-034
 -0.23499999999999999         -3.9342843522319653E-033
 -0.23449999999999999         -3.5791958746137834E-032
 -0.23399999999999999         -2.2702500926551714E-031
 -0.23349999999999999         -1.1190874179967728E-030
 -0.23299999999999998         -4.5652066037738173E-030
 -0.23249999999999998         -1.6017986686779618E-029
 -0.23199999999999998         -4.9605119113251633E-029
 -0.23149999999999998         -1.3808903479189497E-028
 -0.23099999999999998         -3.5019831178777996E-028
 -0.23049999999999998         -8.1717153167021795E-028
 -0.22999999999999998         -1.7675525445792985E-027
 -0.22949999999999998         -3.5630171039125688E-027
 -0.22899999999999998         -6.7174177128971903E-027
 -0.22849999999999998         -1.1866225298259149E-026
 -0.22799999999999998         -1.9637090685279390E-026
 -0.22749999999999998         -3.0358955222158716E-026
 -0.22699999999999998         -4.3547151870092525E-026
 -0.22649999999999998         -5.7127941409679694E-026
 -0.22599999999999998         -6.6426725216751347E-026
 -0.22549999999999998         -6.3059980331661202E-026
 -0.22499999999999998         -3.4023920002142659E-026
 -0.22449999999999998          3.8530842398376174E-026
 -0.22399999999999998          1.7616814066002500E-025
 -0.22349999999999998          4.0089436672123706E-025
 -0.22299999999999998          7.2899976561804580E-025
 -0.22249999999999998          1.1615576637208520E-024
 -0.22199999999999998          1.6717402876379673E-024
 -0.22150000000000000          2.1900921703055805E-024
 -0.22100000000000000          2.5902757581268182E-024
 -0.22050000000000000          2.6791768887805575E-024
 -0.22000000000000000          2.1969207818693142E-024
 -0.21950000000000000          8.3291680802641783E-025
 -0.21900000000000000         -1.7354729491972094E-024
 -0.21850000000000000         -5.7773327578763104E-024
 -0.21800000000000000         -1.1414200563707306E-023
 -0.21750000000000000         -1.8502373304121921E-023
 -0.21700000000000000         -2.6503827353151218E-023
 -0.21650000000000000         -3.4366770743098310E-023
 -0.21600000000000000         -4.0446367021462243E-023
 -0.21550000000000000         -4.2502837379984875E-023
 -0.21500000000000000         -3.7816491201823496E-023
 -0.21450000000000000         -2.3457136808617078E-023
 -0.21400000000000000          3.2710811362399413E-024
 -0.21350000000000000          4.4207840659517699E-023
 -0.21299999999999999          9.9574846692070590E-023
 -0.21249999999999999          1.6714793979516729E-022
 -0.21199999999999999          2.4148977115744041E-022
 -0.21149999999999999          3.1340554825384716E-022
 -0.21099999999999999          3.6981973307689146E-022
 -0.21049999999999999          3.9427333120168192E-022
 -0.20999999999999999          3.6822294808879944E-022
 -0.20949999999999999          2.7322950720804471E-022
 -0.20899999999999999          9.4052137275869150E-023
 -0.20849999999999999         -1.7755560308234916E-022
 -0.20799999999999999         -5.3868373429666638E-022
 -0.20749999999999999         -9.7131153590270430E-022
 -0.20699999999999999         -1.4392968490337348E-021
 -0.20649999999999999         -1.8871593569247108E-021
 -0.20599999999999999         -2.2415225633961293E-021
 -0.20549999999999999         -2.4159547845047115E-021
 -0.20499999999999999         -2.3196175492753441E-021
 -0.20449999999999999         -1.8697001853475518E-021
 -0.20399999999999999         -1.0069111059538936E-021
 -0.20349999999999999          2.8734444461151812E-022
 -0.20299999999999999          1.9743878778107496E-021
 -0.20249999999999999          3.9450984616106386E-021
 -0.20199999999999999          6.0133193065500808E-021
 -0.20149999999999998          7.9192924507864624E-021
 -0.20099999999999998          9.3456208176347067E-021
 -0.20049999999999998          9.9474969522444250E-021
 -0.19999999999999998          9.3969351685671926E-021
 -0.19949999999999998          7.4384784800153266E-021
 -0.19899999999999998          3.9512664543001927E-021
 -0.19849999999999998         -9.9029359854144122E-022
 -0.19799999999999998         -7.0675951401025047E-021
 -0.19749999999999998         -1.3691549492149170E-020
 -0.19699999999999998         -2.0011138521124448E-020
 -0.19649999999999998         -2.4965487110018011E-020
 -0.19600000000000001         -2.7386033447224358E-020
 -0.19550000000000001         -2.6148093597568007E-020
 -0.19500000000000001         -2.0364090523951745E-020
 -0.19450000000000001         -9.6017017014078461E-021
 -0.19400000000000001          5.8987798450545891E-021
 -0.19350000000000001          2.5041473005785647E-020
 -0.19300000000000000          4.5764600226742627E-020
 -0.19250000000000000          6.5042712773703541E-020
 -0.19200000000000000          7.9036061623262514E-020
 -0.19150000000000000          8.3411224132600504E-020
 -0.19100000000000000          7.3838878672805061E-020
 -0.19050000000000000          4.6653148126571080E-020
 -0.19000000000000000         -3.7488021353641635E-022
 -0.18950000000000000         -6.7220644605568417E-020
 -0.18900000000000000         -1.5084906193345229E-019
 -0.18850000000000000         -2.4464005288709703E-019
 -0.18800000000000000         -3.3812660307161824E-019
 -0.18750000000000000         -4.1717581731772680E-019
 -0.18700000000000000         -4.6471687342065075E-019
 -0.18650000000000000         -4.6208128473878451E-019
 -0.18600000000000000         -3.9095952741994746E-019
 -0.18550000000000000         -2.3589496658486439E-019
 -0.18500000000000000          1.2837317991075126E-020
 -0.18450000000000000          3.5621481235681045E-019
 -0.18400000000000000          7.8365427822477095E-019
 -0.18350000000000000          1.2707776723381945E-018
 -0.18300000000000000          1.7781857701984945E-018
 -0.18250000000000000          2.2516339348115670E-018
 -0.18200000000000000          2.6239661575739756E-018
 -0.18149999999999999          2.8190184054521004E-018
 -0.18099999999999999          2.7575849595257297E-018
 -0.18049999999999999          2.3652443423152232E-018
 -0.17999999999999999          1.5817301325183459E-018
 -0.17949999999999999          3.7115985949075284E-019
 -0.17899999999999999         -1.2677143498324208E-018
 -0.17849999999999999         -3.2923117544361722E-018
 -0.17799999999999999         -5.6091695028785516E-018
 -0.17749999999999999         -8.0703579342446428E-018
 -0.17699999999999999         -1.0474315903856746E-017
 -0.17649999999999999         -1.2572077026238338E-017
 -0.17599999999999999         -1.4079342345734694E-017
 -0.17549999999999999         -1.4694568835971702E-017
 -0.17499999999999999         -1.4122463924716885E-017
 -0.17449999999999999         -1.2102020007716350E-017
 -0.17399999999999999         -8.4371545760242402E-018
 -0.17349999999999999         -3.0282603515189853E-018
 -0.17299999999999999          4.0985067022272888E-018
 -0.17249999999999999          1.2766649241262557E-017
 -0.17199999999999999          2.2632220733074565E-017
 -0.17149999999999999          3.3177294791008138E-017
 -0.17099999999999999          4.3715802324765609E-017
 -0.17049999999999998          5.3413590432003561E-017
 -0.16999999999999998          6.1322775032248014E-017
 -0.16949999999999998          6.6430626539672547E-017
 -0.16899999999999998          6.7720827723989849E-017
 -0.16849999999999998          6.4245010105712114E-017
 -0.16799999999999998          5.5200079900414717E-017
 -0.16749999999999998          4.0008090234852342E-017
 -0.16699999999999998          1.8392748539355883E-017
 -0.16649999999999998         -9.5525797381024751E-018
 -0.16599999999999998         -4.3309294546342893E-017
 -0.16549999999999998         -8.1895657607576964E-017
 -0.16499999999999998         -1.2384980824600038E-016
 -0.16449999999999998         -1.6723719737290627E-016
 -0.16399999999999998         -2.0968064270639221E-016
 -0.16349999999999998         -2.4841759334255536E-016
 -0.16299999999999998         -2.8037986556909615E-016
 -0.16249999999999998         -3.0229632087393844E-016
 -0.16199999999999998         -3.1081509530783589E-016
 -0.16149999999999998         -3.0264414846018115E-016
 -0.16099999999999998         -2.7470679551316296E-016
 -0.16049999999999998         -2.2431168198050648E-016
 -0.15999999999999998         -1.4933508738924351E-016
 -0.15949999999999998         -4.8414888552654749E-017
 -0.15899999999999997          7.8838890768229696E-017
 -0.15849999999999997          2.3163405840011617E-016
 -0.15799999999999997          4.0776820436058430E-016
 -0.15749999999999997          6.0339766544716731E-016
 -0.15699999999999997          8.1282440494026002E-016
 -0.15649999999999997          1.0282855857424301E-015
 -0.15599999999999997          1.2397949606357859E-015
 -0.15549999999999997          1.4350411121600995E-015
 -0.15499999999999997          1.5993828792892346E-015
 -0.15449999999999997          1.7159746289435781E-015
 -0.15399999999999997          1.7660675169251081E-015
 -0.15349999999999997          1.7295189127659837E-015
 -0.15299999999999997          1.5855524405929113E-015
 -0.15249999999999997          1.3138142759016573E-015
 -0.15200000000000000          8.9570448737826646E-016
 -0.15150000000000000          3.1601116941941570E-016
 -0.15100000000000000         -4.3514435073088063E-016
 -0.15049999999999999         -1.3602063407880191E-015
 -0.14999999999999999         -2.4518901074133066E-015
 -0.14949999999999999         -3.6909451403308907E-015
 -0.14899999999999999         -5.0439836255135277E-015
 -0.14849999999999999         -6.4617638100125094E-015
 -0.14799999999999999         -7.8779219527789586E-015
 -0.14749999999999999         -9.2085853465185896E-015
 -0.14699999999999999         -1.0352972562765313E-014
 -0.14649999999999999         -1.1195263131357931E-014
 -0.14599999999999999         -1.1607918887281423E-014
 -0.14549999999999999         -1.1456562768459432E-014
 -0.14499999999999999         -1.0606544670094320E-014
 -0.14449999999999999         -8.9310705171046968E-015
 -0.14399999999999999         -6.3208052182182396E-015
 -0.14349999999999999         -2.6946558497443383E-015
 -0.14299999999999999          1.9886741727909552E-015
 -0.14249999999999999          7.7189365559661248E-015
 -0.14199999999999999          1.4423027120723506E-014
 -0.14149999999999999          2.1954948746677234E-014
 -0.14099999999999999          3.0087791344555108E-014
 -0.14049999999999999          3.8508905638163702E-014
 -0.13999999999999999          4.6818779093905871E-014
 -0.13949999999999999          5.4534804146058558E-014
 -0.13899999999999998          6.1100391375625042E-014
 -0.13849999999999998          6.5900263748979820E-014
 -0.13799999999999998          6.8281628476762714E-014
 -0.13749999999999998          6.7582115480485337E-014
 -0.13699999999999998          6.3163068113160452E-014
 -0.13649999999999998          5.4448634331991712E-014
 -0.13599999999999998          4.0967896773352078E-014
 -0.13550000000000001          2.2400498879650070E-014
 -0.13500000000000001         -1.3781404019246532E-015
 -0.13450000000000001         -3.0252369523059808E-014
 -0.13400000000000001         -6.3826824467626403E-014
 -0.13350000000000001         -1.0139400680361842E-013
 -0.13300000000000001         -1.4191006942303016E-013
 -0.13250000000000001         -1.8398535725372617E-013
 -0.13200000000000001         -2.2588653532000142E-013
 -0.13150000000000001         -2.6555952224430480E-013
 -0.13100000000000001         -3.0066788896484534E-013
 -0.13050000000000000         -3.2865206359140080E-013
 -0.13000000000000000         -3.4681000361832167E-013
 -0.12950000000000000         -3.5239489349502529E-013
 -0.12900000000000000         -3.4273352565848919E-013
 -0.12850000000000000         -3.1535847451759609E-013
 -0.12800000000000000         -2.6815432495511071E-013
 -0.12750000000000000         -1.9951203896341659E-013
 -0.12700000000000000         -1.0848313845388319E-013
 -0.12650000000000000          5.0642257837245458E-015
 -0.12600000000000000          1.4030455114600171E-013
 -0.12550000000000000          2.9532510778035675E-013
 -0.12499999999999999          4.6703450880981447E-013
 -0.12449999999999999          6.5108280211991092E-013
 -0.12399999999999999          8.4184656493520814E-013
 -0.12349999999999998          1.0324409510975981E-012
 -0.12299999999999998          1.2148026820087360E-012
 -0.12249999999999998          1.3798203829101310E-012
 -0.12199999999999998          1.5175330006275288E-012
 -0.12149999999999998          1.6173989499582122E-012
 -0.12099999999999998          1.6686188201842619E-012
 -0.12049999999999998          1.6605319891782278E-012
 -0.12000000000000000          1.5830610271295730E-012
 -0.11950000000000000          1.4272114095384752E-012
 -0.11899999999999999          1.1856002389694838E-012
 -0.11849999999999999          8.5301826668485953E-013
 -0.11799999999999999          4.2697939491598834E-013
 -0.11749999999999999         -9.1737369953770406E-014
 -0.11699999999999999         -6.9858533472908337E-013
 -0.11649999999999999         -1.3848260246036213E-012
 -0.11599999999999999         -2.1371931224350223E-012
 -0.11549999999999999         -2.9376872583399251E-012
 -0.11499999999999999         -3.7634992147521319E-012
 -0.11449999999999999         -4.5871469592978750E-012
 -0.11399999999999999         -5.3767728601073215E-012
 -0.11349999999999999         -6.0966915911976997E-012
 -0.11299999999999999         -6.7081397824387755E-012
 -0.11249999999999999         -7.1702868293446041E-012
 -0.11199999999999999         -7.4414509830797618E-012
 -0.11149999999999999         -7.4805460922667448E-012
 -0.11099999999999999         -7.2487262967444972E-012
 -0.11049999999999999         -6.7111796833659532E-012
 -0.10999999999999999         -5.8390224295931656E-012
 -0.10949999999999999         -4.6112650763176462E-012
 -0.10899999999999999         -3.0167681296354240E-012
 -0.10849999999999999         -1.0560585418322977E-012
 -0.10799999999999998          1.2569672344618287E-012
 -0.10749999999999998          3.8936397034956941E-012
 -0.10699999999999998          6.8094618354518428E-012
 -0.10649999999999998          9.9434848896802744E-012
 -0.10599999999999998          1.3218190080989754E-011
 -0.10549999999999998          1.6539992213422237E-011
 -0.10499999999999998          1.9800339185628629E-011
 -0.10449999999999998          2.2877535833040316E-011
 -0.10399999999999998          2.5639200327248966E-011
 -0.10349999999999998          2.7945558604941144E-011
 -0.10299999999999998          2.9653174569117095E-011
 -0.10249999999999998          3.0619473908469144E-011
 -0.10199999999999998          3.0707649307828489E-011
 -0.10149999999999998          2.9792057245160093E-011
 -0.10099999999999998          2.7763782484537205E-011
 -0.10049999999999998          2.4536303024158887E-011
  -9.9999999999999978E-002     2.0051109445286667E-011
  -9.9499999999999977E-002     1.4282954566517946E-011
  -9.8999999999999977E-002     7.2446710315438418E-012
  -9.8499999999999976E-002    -1.0088023487916637E-012
  -9.7999999999999976E-002    -1.0377218055607169E-011
  -9.7499999999999976E-002    -2.0712967289932995E-011
  -9.6999999999999975E-002    -3.1820368228490348E-011
  -9.6499999999999975E-002    -4.3456128866384436E-011
  -9.5999999999999974E-002    -5.5331775459711727E-011
  -9.5500000000000002E-002    -6.7117297746705251E-011
  -9.5000000000000001E-002    -7.8446437661311567E-011
  -9.4500000000000001E-002    -8.8923976770292929E-011
  -9.4000000000000000E-002    -9.8134156698911676E-011
  -9.3500000000000000E-002    -1.0565076080306490E-010
  -9.2999999999999999E-002    -1.1104848514706673E-010
  -9.2499999999999999E-002    -1.1391511305992771E-010
  -9.1999999999999998E-002    -1.1386489282719598E-010
  -9.1499999999999998E-002    -1.1055194861824700E-010
  -9.0999999999999998E-002    -1.0368427963256869E-010
  -9.0499999999999997E-002    -9.3037117846340267E-011
  -8.9999999999999997E-002    -7.8465958950821788E-011
  -8.9499999999999996E-002    -5.9918525060841493E-011
  -8.8999999999999996E-002    -3.7445168750409062E-011
  -8.8499999999999995E-002    -1.1207703071291729E-011
  -8.7999999999999995E-002     1.8514270144909809E-011
  -8.7499999999999994E-002     5.1319292665915356E-011
  -8.6999999999999994E-002     8.6683135443490777E-011
  -8.6499999999999994E-002     1.2396027121271979E-010
  -8.5999999999999993E-002     1.6238999429534259E-010
  -8.5499999999999993E-002     2.0110441817145470E-010
  -8.4999999999999992E-002     2.3914113017927685E-010
  -8.4499999999999992E-002     2.7545840918934475E-010
  -8.3999999999999991E-002     3.0895434072095837E-010
  -8.3499999999999991E-002     3.3848888079777735E-010
  -8.2999999999999990E-002     3.6290833205830593E-010
  -8.2499999999999990E-002     3.8107222640743860E-010
  -8.1999999999999990E-002     3.9188279666076157E-010
  -8.1499999999999989E-002     3.9431387045859599E-010
  -8.0999999999999989E-002     3.8744254142997577E-010
  -8.0499999999999988E-002     3.7047961628283862E-010
  -7.9999999999999988E-002     3.4279837000381917E-010
  -7.9499999999999987E-002     3.0396348210794680E-010
  -7.8999999999999987E-002     2.5375607077331733E-010
  -7.8499999999999986E-002     1.9219646327551111E-010
  -7.7999999999999986E-002     1.1956262456712848E-010
  -7.7499999999999986E-002     3.6403789568101836E-011
  -7.6999999999999985E-002    -5.6450053192716327E-011
  -7.6499999999999985E-002    -1.5788500288034590E-010
  -7.5999999999999984E-002    -2.6650577368705100E-010
  -7.5499999999999984E-002    -3.8064489821389987E-010
  -7.4999999999999983E-002    -4.9837597511856067E-010
  -7.4499999999999983E-002    -6.1753651414201291E-010
  -7.3999999999999982E-002    -7.3575308471134629E-010
  -7.3499999999999982E-002    -8.5047545417613334E-010
  -7.2999999999999982E-002    -9.5901133543869300E-010
  -7.2499999999999981E-002    -1.0585729781920905E-009
  -7.1999999999999981E-002    -1.1463180045050568E-009
  -7.1499999999999980E-002    -1.2194020085707971E-009
  -7.0999999999999980E-002    -1.2750292790679147E-009
  -7.0499999999999979E-002    -1.3105040475793982E-009
  -6.9999999999999979E-002    -1.3232873974826701E-009
  -6.9499999999999978E-002    -1.3110487998019138E-009
  -6.8999999999999978E-002    -1.2717182876433536E-009
  -6.8499999999999978E-002    -1.2035410821756323E-009
  -6.7999999999999977E-002    -1.1051243921127085E-009
  -6.7499999999999977E-002    -9.7548468159439868E-010
  -6.6999999999999976E-002    -8.1409213897269136E-010
  -6.6499999999999976E-002    -6.2090938171140919E-010
  -6.5999999999999975E-002    -3.9642765321574789E-010
  -6.5499999999999975E-002    -1.4169795793273591E-010
  -6.4999999999999974E-002     1.4164422032174774E-010
  -6.4499999999999974E-002     4.5135443677628031E-010
  -6.4000000000000001E-002     7.8456657401280177E-010
  -6.3500000000000001E-002     1.1377857383887933E-009
  -6.3000000000000000E-002     1.5068832922260994E-009
  -6.2500000000000000E-002     1.8871031548481862E-009
  -6.2000000000000000E-002     2.2730756692182528E-009
  -6.1499999999999999E-002     2.6588410255787735E-009
  -6.0999999999999999E-002     3.0378802810096673E-009
  -6.0499999999999998E-002     3.4031580126744930E-009
  -5.9999999999999998E-002     3.7471834270339326E-009
  -5.9499999999999997E-002     4.0620620252727104E-009
  -5.8999999999999997E-002     4.3395858264873669E-009
  -5.8499999999999996E-002     4.5713306743536601E-009
  -5.7999999999999996E-002     4.7487478717182142E-009
  -5.7499999999999996E-002     4.8632916800890982E-009
  -5.6999999999999995E-002     4.9065527834563433E-009
  -5.6499999999999995E-002     4.8704085123081178E-009
  -5.5999999999999994E-002     4.7471750277475278E-009
  -5.5499999999999994E-002     4.5297748761661382E-009
  -5.4999999999999993E-002     4.2119237492748997E-009
  -5.4499999999999993E-002     3.7883043323905366E-009
  -5.3999999999999992E-002     3.2547604488077471E-009
  -5.3499999999999992E-002     2.6084916065297940E-009
  -5.2999999999999992E-002     1.8482365965066611E-009
  -5.2499999999999991E-002     9.7444004424471368E-010
  -5.1999999999999991E-002    -1.0549629365177691E-011
  -5.1499999999999990E-002    -1.1023475798799008E-009
  -5.0999999999999990E-002    -2.2943761985767048E-009
  -5.0499999999999989E-002    -3.5777768968722753E-009
  -4.9999999999999989E-002    -4.9412919924808139E-009
  -4.9499999999999988E-002    -6.3712308160507900E-009
  -4.8999999999999988E-002    -7.8514432587042844E-009
  -4.8499999999999988E-002    -9.3633468326888814E-009
  -4.7999999999999987E-002    -1.0885982401441786E-008
  -4.7499999999999987E-002    -1.2396125620159054E-008
  -4.6999999999999986E-002    -1.3868432684338943E-008
  -4.6499999999999986E-002    -1.5275679973904551E-008
  -4.5999999999999985E-002    -1.6588975710351918E-008
  -4.5499999999999985E-002    -1.7778071642944893E-008
  -4.4999999999999984E-002    -1.8811762007842711E-008
  -4.4499999999999984E-002    -1.9658220849483890E-008
  -4.3999999999999984E-002    -2.0285494221788356E-008
  -4.3499999999999983E-002    -2.0661962919641757E-008
  -4.2999999999999983E-002    -2.0756878873838925E-008
  -4.2499999999999982E-002    -2.0540913731997880E-008
  -4.1999999999999982E-002    -1.9986735673405100E-008
  -4.1499999999999981E-002    -1.9069646049947598E-008
  -4.0999999999999981E-002    -1.7768119392714636E-008
  -4.0499999999999980E-002    -1.6064448369882812E-008
  -3.9999999999999980E-002    -1.3945429722310236E-008
  -3.9499999999999980E-002    -1.1402773284655702E-008
  -3.8999999999999979E-002    -8.4339004540289918E-009
  -3.8499999999999979E-002    -5.0421925770838461E-009
  -3.7999999999999978E-002    -1.2378219163449255E-009
  -3.7499999999999978E-002     2.9621878339190909E-009
  -3.6999999999999977E-002     7.5333276264788428E-009
  -3.6499999999999977E-002     1.2443485870733551E-008
  -3.5999999999999976E-002     1.7652619261728046E-008
  -3.5499999999999976E-002     2.3112742858588985E-008
  -3.4999999999999976E-002     2.8767820060940625E-008
  -3.4499999999999975E-002     3.4554061790455900E-008
  -3.3999999999999975E-002     4.0399950036397239E-008
  -3.3499999999999974E-002     4.6226474389145523E-008
  -3.2999999999999974E-002     5.1947847023678525E-008
  -3.2499999999999973E-002     5.7471782692017742E-008
  -3.1999999999999973E-002     6.2700562281513252E-008
  -3.1500000000000000E-002     6.7531254962379901E-008
  -3.1000000000000000E-002     7.1857207126582618E-008
  -3.0499999999999999E-002     7.5568484487781672E-008
  -2.9999999999999999E-002     7.8553758711426703E-008
  -2.9499999999999998E-002     8.0700566464668156E-008
  -2.8999999999999998E-002     8.1897386001490757E-008
  -2.8499999999999998E-002     8.2034497830078982E-008
  -2.7999999999999997E-002     8.1005998399409860E-008
  -2.7499999999999997E-002     7.8710900731898012E-008
  -2.6999999999999996E-002     7.5054455707947266E-008
  -2.6499999999999996E-002     6.9950812194291526E-008
  -2.5999999999999995E-002     6.3322534367008677E-008
  -2.5499999999999995E-002     5.5104860230366556E-008
  -2.4999999999999994E-002     4.5245784068172141E-008
  -2.4499999999999994E-002     3.3707471940456526E-008
  -2.3999999999999994E-002     2.0468995387915710E-008
  -2.3499999999999993E-002     5.5258321481024324E-009
  -2.2999999999999993E-002    -1.1106002504291283E-008
  -2.2499999999999992E-002    -2.9389984986697532E-008
  -2.1999999999999992E-002    -4.9269148256645580E-008
  -2.1499999999999991E-002    -7.0662585073409519E-008
  -2.0999999999999991E-002    -9.3465024756775450E-008
  -2.0499999999999990E-002    -1.1754740092915510E-007
  -1.9999999999999990E-002    -1.4275488672800350E-007
  -1.9499999999999990E-002    -1.6890531396963386E-007
  -1.8999999999999989E-002    -1.9579105000189993E-007
  -1.8499999999999989E-002    -2.2317944007509582E-007
  -1.7999999999999988E-002    -2.5081003152704906E-007
  -1.7499999999999988E-002    -2.7839482942001372E-007
  -1.6999999999999987E-002    -3.0562426018185776E-007
  -1.6499999999999987E-002    -3.3216171219911775E-007
  -1.5999999999999986E-002    -3.5764569371783694E-007
  -1.5499999999999986E-002    -3.8169611409094590E-007
  -1.4999999999999986E-002    -4.0391208340464655E-007
  -1.4499999999999985E-002    -4.2387097867410254E-007
  -1.3999999999999985E-002    -4.4113743700812936E-007
  -1.3499999999999984E-002    -4.5525972099815083E-007
  -1.2999999999999984E-002    -4.6577443694817219E-007
  -1.2499999999999983E-002    -4.7221284734786798E-007
  -1.1999999999999983E-002    -4.7409176659817338E-007
  -1.1499999999999982E-002    -4.7093604023745345E-007
  -1.0999999999999982E-002    -4.6226016572297049E-007
  -1.0499999999999982E-002    -4.4758588475426187E-007
  -9.9999999999999811E-003    -4.2644394169128847E-007
  -9.4999999999999807E-003    -3.9836345669199820E-007
  -8.9999999999999802E-003    -3.6289892589818640E-007
  -8.4999999999999798E-003    -3.1961141823613595E-007
  -7.9999999999999793E-003    -2.6807457807627651E-007
  -7.4999999999999789E-003    -2.0789115787738662E-007
  -6.9999999999999785E-003    -1.3867859434416050E-007
  -6.4999999999999780E-003    -6.0078092223369636E-008
  -5.9999999999999776E-003     2.8240693032495406E-008
  -5.4999999999999771E-003     1.2659586144983935E-007
  -4.9999999999999767E-003     2.3525932516313727E-007
  -4.4999999999999762E-003     3.5449683824590782E-007
  -3.9999999999999758E-003     4.8453503625276026E-007
  -3.4999999999999754E-003     6.2559645163520963E-007
  -2.9999999999999749E-003     7.7784686574487024E-007
  -2.4999999999999745E-003     9.4146613149326569E-007
  -1.9999999999999740E-003     1.1165993528741473E-006
  -1.4999999999999736E-003     1.3033810375519940E-006
  -9.9999999999997313E-004     1.5019424404823287E-006
  -4.9999999999997269E-004     1.7123823420566000E-006
   0.0000000000000000          1.9348347470470256E-006
   5.0000000000000044E-004     2.1694040408861440E-006
   1.0000000000000009E-003     2.4162338739463689E-006
   1.5000000000000013E-003     2.6754647687313110E-006
   2.0000000000000018E-003     2.9472834499536771E-006
   2.5000000000000022E-003     3.2318916590608168E-006
   3.0000000000000027E-003     3.5294987288254652E-006
   3.5000000000000031E-003     3.8404425932419087E-006
   4.0000000000000036E-003     4.1650594097530553E-006
   4.5000000000000040E-003     4.5037619249631073E-006
   5.0000000000000044E-003     4.8570535883790932E-006
   5.5000000000000049E-003     5.2255248331361224E-006
   6.0000000000000053E-003     5.6098371010424388E-006
   6.5000000000000058E-003     6.0107536900914428E-006
   7.0000000000000062E-003     6.4292318527373711E-006
   7.5000000000000067E-003     6.8662785244813631E-006
   8.0000000000000071E-003     7.3231018389082433E-006
   8.5000000000000075E-003     7.8009577579690230E-006
   9.0000000000000080E-003     8.3013692329744098E-006
   9.5000000000000084E-003     8.8260263050116102E-006
   1.0000000000000009E-002     9.3767797063857494E-006
   1.0500000000000009E-002     9.9556022760324221E-006
   1.1000000000000010E-002     1.0564871767818096E-005
   1.1500000000000010E-002     1.1206928548110933E-005
   1.2000000000000011E-002     1.1884499836663263E-005
   1.2500000000000011E-002     1.2600563619653585E-005
   1.3000000000000012E-002     1.3358181900518370E-005
   1.3500000000000012E-002     1.4161024798777431E-005
   1.4000000000000012E-002     1.5012653183193854E-005
   1.4500000000000013E-002     1.5917058301261798E-005
   1.5000000000000013E-002     1.6878736654524994E-005
   1.5500000000000014E-002     1.7902115763885114E-005
   1.6000000000000014E-002     1.8992264943271068E-005
   1.6500000000000015E-002     2.0154349722763590E-005
   1.7000000000000015E-002     2.1393999590411999E-005
   1.7500000000000016E-002     2.2717253408432939E-005
   1.8000000000000016E-002     2.4130354989973697E-005
   1.8500000000000016E-002     2.5640048300601513E-005
   1.9000000000000017E-002     2.7253596048326833E-005
   1.9500000000000017E-002     2.8978275994123239E-005
   2.0000000000000018E-002     3.0822219053885691E-005
   2.0500000000000018E-002     3.2793557679978703E-005
   2.1000000000000019E-002     3.4901514985343069E-005
   2.1500000000000019E-002     3.7155186323019085E-005
   2.2000000000000020E-002     3.9564363993059627E-005
   2.2500000000000020E-002     4.2139575671190605E-005
   2.3000000000000020E-002     4.4891468216652950E-005
   2.3500000000000021E-002     4.7831675939021426E-005
   2.4000000000000021E-002     5.0972258057649291E-005
   2.4500000000000022E-002     5.4326261084985860E-005
   2.5000000000000022E-002     5.7906375839015452E-005
   2.5500000000000023E-002     6.1726963414259175E-005
   2.6000000000000023E-002     6.5803088067544651E-005
   2.6500000000000024E-002     7.0149703505239830E-005
   2.7000000000000024E-002     7.4783404147952916E-005
   2.7500000000000024E-002     7.9722266099940456E-005
   2.8000000000000025E-002     8.4983618489276798E-005
   2.8500000000000025E-002     9.0586865061183212E-005
   2.9000000000000026E-002     9.6552139164176053E-005
   2.9500000000000026E-002     1.0290076161810331E-004
   3.0000000000000027E-002     1.0965595546969664E-004
   3.0500000000000027E-002     1.1684032283045933E-004
   3.1000000000000028E-002     1.2447932767107402E-004
   3.1500000000000028E-002     1.3259875557713929E-004
   3.2000000000000028E-002     1.4122733570451343E-004