 -0.23999999999999999          5.8506453015638726E-009
 -0.23949999999999999          1.5794729080198522E-008
 -0.23899999999999999          2.0495004804388373E-008
 -0.23849999999999999          1.7398306795257668E-008
 -0.23799999999999999          6.0319651495888138E-009
 -0.23749999999999999         -1.1733623850318509E-008
 -0.23699999999999999         -3.1978402148524765E-008
 -0.23649999999999999         -4.9526345691219831E-008
 -0.23599999999999999         -5.9068781865789788E-008
 -0.23549999999999999         -5.6368698153619334E-008
 -0.23499999999999999         -3.9274326013583050E-008
 -0.23449999999999999         -8.3078273149794768E-009
 -0.23399999999999999          3.3314897507352725E-008
 -0.23349999999999999          8.0253393264229089E-008
 -0.23299999999999998          1.2609075383807067E-007
 -0.23249999999999998          1.6464275631733472E-007
 -0.23199999999999998          1.9124823325000762E-007
 -0.23149999999999998          2.0375993869947706E-007
 -0.23099999999999998          2.0301551728607592E-007
 -0.23049999999999998          1.9267760364982678E-007
 -0.22999999999999998          1.7846751632077940E-007
 -0.22949999999999998          1.6694910698333842E-007
 -0.22899999999999998          1.6411929948390025E-007
 -0.22849999999999998          1.7410752661817241E-007
 -0.22799999999999998          1.9826731545435905E-007
 -0.22749999999999998          2.3486263955874165E-007
 -0.22699999999999998          2.7942613201048516E-007
 -0.22649999999999998          3.2572253871876455E-007
 -0.22599999999999998          3.6711941220346489E-007
 -0.22549999999999998          3.9807625284993264E-007
 -0.22499999999999998          4.1543313500369550E-007
 -0.22449999999999998          4.1921816773538012E-007
 -0.22399999999999998          4.1279139395555831E-007
 -0.22349999999999998          4.0228056263913459E-007
 -0.22299999999999998          3.9541453134006588E-007
 -0.22249999999999998          3.9998883494263282E-007
 -0.22199999999999998          4.2227807739436685E-007
 -0.22150000000000000          4.6572665723942919E-007
 -0.22100000000000000          5.3019437018519966E-007
 -0.22050000000000000          6.1192105249574524E-007
 -0.22000000000000000          7.0422646558654378E-007
 -0.21950000000000000          7.9881124293024186E-007
 -0.21900000000000000          8.8739767534207203E-007
 -0.21850000000000000          9.6337930699519347E-007
 -0.21800000000000000          1.0231444775854470E-006
 -0.21750000000000000          1.0668065897334600E-006
 -0.21700000000000000          1.0981939340126701E-006
 -0.21650000000000000          1.1241038464504527E-006
 -0.21600000000000000          1.1529765515660984E-006
 -0.21550000000000000          1.1932605730180512E-006
 -0.21500000000000000          1.2518033827291219E-006
 -0.21450000000000000          1.3325919780982076E-006
 -0.21400000000000000          1.4360927025336423E-006
 -0.21350000000000000          1.5593163880112115E-006
 -0.21299999999999999          1.6965847180472338E-006
 -0.21249999999999999          1.8408284176985035E-006
 -0.21199999999999999          1.9851456727337791E-006
 -0.21149999999999999          2.1243001810944406E-006
 -0.21099999999999999          2.2558538148587104E-006
 -0.21049999999999999          2.3807126581232296E-006
 -0.20999999999999999          2.5029883090610383E-006
 -0.20949999999999999          2.6292202619515592E-006
 -0.20899999999999999          2.7671335374179762E-006
 -0.20849999999999999          2.9241962238302222E-006
 -0.20799999999999999          3.1062763810041361E-006
 -0.20749999999999999          3.3166693356179167E-006
 -0.20699999999999999          3.5556824968807632E-006
 -0.20649999999999999          3.8208427213248797E-006
 -0.20599999999999999          4.1076632442127448E-006
 -0.20549999999999999          4.4107882786192931E-006
 -0.20499999999999999          4.7252729018509854E-006
 -0.20449999999999999          5.0477242439228576E-006
 -0.20399999999999999          5.3770763770444319E-006
 -0.20349999999999999          5.7148599807987921E-006
 -0.20299999999999999          6.0649326769635081E-006
 -0.20249999999999999          6.4327568907174282E-006
 -0.20199999999999999          6.8244048634369392E-006
 -0.20149999999999998          7.2455168265150860E-006
 -0.20099999999999998          7.7004378908895887E-006
 -0.20049999999999998          8.1917150964727625E-006
 -0.19999999999999998          8.7200442067114636E-006
 -0.19949999999999998          9.2846621555509046E-006
 -0.19899999999999998          9.8840564533020370E-006
 -0.19849999999999998          1.0516833754081745E-005
 -0.19799999999999998          1.1182541129528545E-005
 -0.19749999999999998          1.1882242688443512E-005
 -0.19699999999999998          1.2618739674508106E-005
 -0.19649999999999998          1.3396403119259048E-005
 -0.19600000000000001          1.4220669072528835E-005
 -0.19550000000000001          1.5097320101631340E-005
 -0.19500000000000001          1.6031750419642776E-005
 -0.19450000000000001          1.7028378351824358E-005
 -0.19400000000000001          1.8090355297317728E-005
 -0.19350000000000001          1.9219642126699910E-005
 -0.19300000000000000          2.0417408450157382E-005
 -0.19250000000000000          2.1684676539734937E-005
 -0.19200000000000000          2.3023058020044118E-005
 -0.19150000000000000          2.4435379600618035E-005
 -0.19100000000000000          2.5926057787728496E-005
 -0.19050000000000000          2.7501146178110503E-005
 -0.19000000000000000          2.9167998945922591E-005
 -0.18950000000000000          3.0934668757254258E-005
 -0.18900000000000000          3.2809170079417527E-005
 -0.18850000000000000          3.4798777051037177E-005
 -0.18800000000000000          3.6909525078954175E-005
 -0.18750000000000000          3.9146096241893247E-005
 -0.18700000000000000          4.1512092138873413E-005
 -0.18650000000000000          4.4010630517732352E-005
 -0.18600000000000000          4.6645225665997714E-005
 -0.18550000000000000          4.9420727009419352E-005
 -0.18500000000000000          5.2344061259645969E-005
 -0.18450000000000000          5.5424654419766739E-005
 -0.18400000000000000          5.8674446336226538E-005
 -0.18350000000000000          6.2107414123602211E-005
 -0.18300000000000000          6.5738742705434561E-005
 -0.18250000000000000          6.9583817094098777E-005
 -0.18200000000000000          7.3657203756738454E-005
 -0.18149999999999999          7.7971919381525367E-005
 -0.18099999999999999          8.2539088907651603E-005
 -0.18049999999999999          8.7368091044481844E-005
 -0.17999999999999999          9.2467242211569101E-005
 -0.17949999999999999          9.7844807896763086E-005
 -0.17899999999999999          1.0351025412091985E-004
 -0.17849999999999999          1.0947538248728961E-004
 -0.17799999999999999          1.1575511598493904E-004
 -0.17749999999999999          1.2236789916642010E-004
 -0.17699999999999999          1.2933541438542306E-004
 -0.17649999999999999          1.3668191968463361E-004
 -0.17599999999999999          1.4443318650592119E-004
 -0.17549999999999999          1.5261520456988364E-004
 -0.17499999999999999          1.6125314868986607E-004
 -0.17449999999999999          1.7037065117619932E-004
 -0.17399999999999999          1.7998962721321732E-004
 -0.17349999999999999          1.9013058044947684E-004
 -0.17299999999999999          2.0081346156075597E-004
 -0.17249999999999999          2.1205903613008559E-004
 -0.17199999999999999          2.2389020887203515E-004
 -0.17149999999999999          2.3633323144167662E-004
 -0.17099999999999999          2.4941851734183729E-004
 -0.17049999999999998          2.6318081654608250E-004
 -0.16999999999999998          2.7765892446041107E-004
 -0.16949999999999998          2.9289483791217208E-004
 -0.16899999999999998          3.0893270741216838E-004
 -0.16849999999999998          3.2581758568994701E-004
 -0.16799999999999998          3.4359440905973315E-004
 -0.16749999999999998          3.6230735713616014E-004
 -0.16699999999999998          3.8199973641894758E-004
 -0.16649999999999998          4.0271447505801916E-004
 -0.16599999999999998          4.2449514148756862E-004
 -0.16549999999999998          4.4738710857927799E-004
 -0.16499999999999998          4.7143880510702729E-004
 -0.16449999999999998          4.9670290900394320E-004
 -0.16399999999999998          5.2323687123134732E-004
 -0.16349999999999998          5.5110309040173888E-004
 -0.16299999999999998          5.8036879636347294E-004
 -0.16249999999999998          6.1110517708584666E-004
 -0.16199999999999998          6.4338662195950747E-004
 -0.16149999999999998          6.7728961585089564E-004
 -0.16099999999999998          7.1289204061031342E-004
 -0.16049999999999998          7.5027288403362036E-004
 -0.15999999999999998          7.8951247269287705E-004
 -0.15949999999999998          8.3069299580529332E-004
 -0.15899999999999997          8.7389961117878556E-004
 -0.15849999999999997          9.1922137653455138E-004
 -0.15799999999999997          9.6675171516835690E-004
 -0.15749999999999997          1.0165898129343987E-003
 -0.15699999999999997          1.0688409674912691E-003
 -0.15649999999999997          1.1236162390559912E-003
 -0.15599999999999997          1.1810327414423227E-003
 -0.15549999999999997          1.2412130599841475E-003
 -0.15499999999999997          1.3042843202129006E-003
 -0.15449999999999997          1.3703776057809591E-003
 -0.15399999999999997          1.4396284241229296E-003
 -0.15349999999999997          1.5121762407943606E-003
 -0.15299999999999997          1.5881647123023868E-003
 -0.15249999999999997          1.6677421517670155E-003
 -0.15200000000000000          1.7510626930743456E-003
 -0.15150000000000000          1.8382876878604293E-003
 -0.15100000000000000          1.9295858219265938E-003
 -0.15049999999999999          2.0251329988241196E-003
 -0.14999999999999999          2.1251135040074587E-003
 -0.14949999999999999          2.2297194227576256E-003
 -0.14899999999999999          2.3391500581055880E-003
 -0.14849999999999999          2.4536123964935541E-003
 -0.14799999999999999          2.5733208749443293E-003
 -0.14749999999999999          2.6984976138919592E-003
 -0.14699999999999999          2.8293717186897993E-003
 -0.14649999999999999          2.9661792796105146E-003
 -0.14599999999999999          3.1091652344912291E-003
 -0.14549999999999999          3.2585843000560999E-003
 -0.14499999999999999          3.4147014375776052E-003
 -0.14449999999999999          3.5777911543846130E-003
 -0.14399999999999999          3.7481395993381739E-003
 -0.14349999999999999          3.9260447956621647E-003
 -0.14299999999999999          4.1118171066045761E-003
 -0.14249999999999999          4.3057785369455814E-003
 -0.14199999999999999          4.5082597061991692E-003
 -0.14149999999999999          4.7196052037179470E-003
 -0.14099999999999999          4.9401693977415562E-003
 -0.14049999999999999          5.1703164353966713E-003
 -0.13999999999999999          5.4104253649711609E-003
 -0.13949999999999999          5.6608850136399269E-003
 -0.13899999999999998          5.9220977127552032E-003
 -0.13849999999999998          6.1944820918142796E-003
 -0.13799999999999998          6.4784712158143520E-003
 -0.13749999999999998          6.7745149135589600E-003
 -0.13699999999999998          7.0830811746418476E-003
 -0.13649999999999998          7.4046533554792404E-003
 -0.13599999999999998          7.7397320419549942E-003
 -0.13550000000000001          8.0888345837593079E-003
 -0.13500000000000001          8.4524936974048615E-003
 -0.13450000000000001          8.8312570005655289E-003
 -0.13400000000000001          9.2256879433989525E-003
 -0.13350000000000001          9.6363639459013939E-003
 -0.13300000000000001          1.0063881985843182E-002
 -0.13250000000000001          1.0508862324059010E-002
 -0.13200000000000001          1.0971942916512489E-002
 -0.13150000000000001          1.1453779414296150E-002
 -0.13100000000000001          1.1955052614212036E-002
 -0.13050000000000000          1.2476467527449131E-002
 -0.13000000000000000          1.3018753379583359E-002
 -0.12950000000000000          1.3582662679255009E-002
 -0.12900000000000000          1.4168966561555862E-002
 -0.12850000000000000          1.4778465032577515E-002
 -0.12800000000000000          1.5411977656185627E-002
 -0.12750000000000000          1.6070345416665077E-002
 -0.12700000000000000          1.6754433512687683E-002
 -0.12650000000000000          1.7465125769376755E-002
 -0.12600000000000000          1.8203333020210266E-002
 -0.12550000000000000          1.8969986587762833E-002
 -0.12499999999999999          1.9766053184866905E-002
 -0.12449999999999999          2.0592534914612770E-002
 -0.12399999999999999          2.1450452506542206E-002
 -0.12349999999999998          2.2340860217809677E-002
 -0.12299999999999998          2.3264853283762932E-002
 -0.12249999999999998          2.4223543703556061E-002
 -0.12199999999999998          2.5218077003955841E-002
 -0.12149999999999998          2.6249639689922333E-002
 -0.12099999999999998          2.7319429442286491E-002
 -0.12049999999999998          2.8428670018911362E-002
 -0.12000000000000000          2.9578620567917824E-002
 -0.11950000000000000          3.0770570039749146E-002
 -0.11899999999999999          3.2005846500396729E-002
 -0.11849999999999999          3.3285822719335556E-002
 -0.11799999999999999          3.4611899405717850E-002
 -0.11749999999999999          3.5985503345727921E-002
 -0.11699999999999999          3.7408113479614258E-002
 -0.11649999999999999          3.8881242275238037E-002
 -0.11599999999999999          4.0406424552202225E-002
 -0.11549999999999999          4.1985232383012772E-002
 -0.11499999999999999          4.3619278818368912E-002
 -0.11449999999999999          4.5310202986001968E-002
 -0.11399999999999999          4.7059692442417145E-002
 -0.11349999999999999          4.8869471997022629E-002
 -0.11299999999999999          5.0741296261548996E-002
 -0.11249999999999999          5.2676975727081299E-002
 -0.11199999999999999          5.4678354412317276E-002
 -0.11149999999999999          5.6747309863567352E-002
 -0.11099999999999999          5.8885779231786728E-002
 -0.11049999999999999          6.1095699667930603E-002
 -0.10999999999999999          6.3379056751728058E-002
 -0.10949999999999999          6.5737895667552948E-002
 -0.10899999999999999          6.8174287676811218E-002
 -0.10849999999999999          7.0690326392650604E-002
 -0.10799999999999998          7.3288142681121826E-002
 -0.10749999999999998          7.5969956815242767E-002
 -0.10699999999999998          7.8738018870353699E-002
 -0.10649999999999998          8.1594593822956085E-002
 -0.10599999999999998          8.4541998803615570E-002
 -0.10549999999999998          8.7582588195800781E-002
 -0.10499999999999998          9.0718738734722137E-002
 -0.10449999999999998          9.3952886760234833E-002
 -0.10399999999999998          9.7287483513355255E-002
 -0.10349999999999998         0.10072502493858337     
 -0.10299999999999998         0.10426808148622513     
 -0.10249999999999998         0.10791926085948944     
 -0.10199999999999998         0.11168118566274643     
 -0.10149999999999998         0.11555651575326920     
 -0.10099999999999998         0.11954797804355621     
 -0.10049999999999998         0.12365823984146118     
  -9.9999999999999978E-002    0.12789002060890198     
  -9.9499999999999977E-002    0.13224613666534424     
  -9.8999999999999977E-002    0.13672943413257599     
  -9.8499999999999976E-002    0.14134272933006287     
  -9.7999999999999976E-002    0.14608891308307648     
  -9.7499999999999976E-002    0.15097098052501678     
  -9.6999999999999975E-002    0.15599186718463898     
  -9.6499999999999975E-002    0.16115456819534302     
  -9.5999999999999974E-002    0.16646216809749603     
  -9.5500000000000002E-002    0.17191761732101440     
  -9.5000000000000001E-002    0.17752394080162048     
  -9.4500000000000001E-002    0.18328422307968140     
  -9.4000000000000000E-002    0.18920156359672546     
  -9.3500000000000000E-002    0.19527906179428101     
  -9.2999999999999999E-002    0.20151980221271515     
  -9.2499999999999999E-002    0.20792694389820099     
  -9.1999999999999998E-002    0.21450358629226685     
  -9.1499999999999998E-002    0.22125296294689178     
  -9.0999999999999998E-002    0.22817829251289368     
  -9.0499999999999997E-002    0.23528277873992920     
  -8.9999999999999997E-002    0.24256967008113861     
  -8.9499999999999996E-002    0.25004214048385620     
  -8.8999999999999996E-002    0.25770339369773865     
  -8.8499999999999995E-002    0.26555651426315308     
  -8.7999999999999995E-002    0.27360463142395020     
  -8.7499999999999994E-002    0.28185084462165833     
  -8.6999999999999994E-002    0.29029831290245056     
  -8.6499999999999994E-002    0.29895022511482239     
  -8.5999999999999993E-002    0.30780977010726929     
  -8.5499999999999993E-002    0.31688007712364197     
  -8.4999999999999992E-002    0.32616415619850159     
  -8.4499999999999992E-002    0.33566501736640930     
  -8.3999999999999991E-002    0.34538567066192627     
  -8.3499999999999991E-002    0.35532918572425842     
  -8.2999999999999990E-002    0.36549839377403259     
  -8.2499999999999990E-002    0.37589615583419800     
  -8.1999999999999990E-002    0.38652539253234863     
  -8.1499999999999989E-002    0.39738881587982178     
  -8.0999999999999989E-002    0.40848922729492188     
  -8.0499999999999988E-002    0.41982921957969666     
  -7.9999999999999988E-002    0.43141126632690430     
  -7.9499999999999987E-002    0.44323801994323730     
  -7.8999999999999987E-002    0.45531210303306580     
  -7.8499999999999986E-002    0.46763578057289124     
  -7.7999999999999986E-002    0.48021116852760315     
  -7.7499999999999986E-002    0.49304041266441345     
  -7.6999999999999985E-002    0.50612574815750122     
  -7.6499999999999985E-002    0.51946932077407837     
  -7.5999999999999984E-002    0.53307288885116577     
  -7.5499999999999984E-002    0.54693818092346191     
  -7.4999999999999983E-002    0.56106692552566528     
  -7.4499999999999983E-002    0.57546049356460571     
  -7.3999999999999982E-002    0.59012025594711304     
  -7.3499999999999982E-002    0.60504740476608276     
  -7.2999999999999982E-002    0.62024283409118652     
  -7.2499999999999981E-002    0.63570755720138550     
  -7.1999999999999981E-002    0.65144264698028564     
  -7.1499999999999980E-002    0.66744887828826904     
  -7.0999999999999980E-002    0.68372672796249390     
  -7.0499999999999979E-002    0.70027649402618408     
  -6.9999999999999979E-002    0.71709841489791870     
  -6.9499999999999978E-002    0.73419255018234253     
  -6.8999999999999978E-002    0.75155836343765259     
  -6.8499999999999978E-002    0.76919513940811157     
  -6.7999999999999977E-002    0.78710240125656128     
  -6.7499999999999977E-002    0.80527967214584351     
  -6.6999999999999976E-002    0.82372575998306274     
  -6.6499999999999976E-002    0.84243899583816528     
  -6.5999999999999975E-002    0.86141794919967651     
  -6.5499999999999975E-002    0.88066083192825317     
  -6.4999999999999974E-002    0.90016531944274902     
  -6.4499999999999974E-002    0.91992926597595215     
  -6.4000000000000001E-002    0.93995010852813721     
  -6.3500000000000001E-002    0.96022480726242065     
  -6.3000000000000000E-002    0.98075062036514282     
  -6.2500000000000000E-002     1.0015243291854858     
  -6.2000000000000000E-002     1.0225421190261841     
  -6.1499999999999999E-002     1.0437999963760376     
  -6.0999999999999999E-002     1.0652935504913330     
  -6.0499999999999998E-002     1.0870184898376465     
  -5.9999999999999998E-002     1.1089700460433960     
  -5.9499999999999997E-002     1.1311429738998413     
  -5.8999999999999997E-002     1.1535315513610840     
  -5.8499999999999996E-002     1.1761293411254883     
  -5.7999999999999996E-002     1.1989296674728394     
  -5.7499999999999996E-002     1.2219258546829224     
  -5.6999999999999995E-002     1.2451119422912598     
  -5.6499999999999995E-002     1.2684807777404785     
  -5.5999999999999994E-002     1.2920248508453369     
  -5.5499999999999994E-002     1.3157368898391724     
  -5.4999999999999993E-002     1.3396079540252686     
  -5.4499999999999993E-002     1.3636296987533569     
  -5.3999999999999992E-002     1.3877925872802734     
  -5.3499999999999992E-002     1.4120866060256958     
  -5.2999999999999992E-002     1.4365026950836182     
  -5.2499999999999991E-002     1.4610298871994019     
  -5.1999999999999991E-002     1.4856559038162231     
  -5.1499999999999990E-002     1.5103700160980225     
  -5.0999999999999990E-002     1.5351617336273193     
  -5.0499999999999989E-002     1.5600188970565796     
  -4.9999999999999989E-002     1.5849289894104004     
  -4.9499999999999988E-002     1.6098785400390625     
  -4.8999999999999988E-002     1.6348547935485840     
  -4.8499999999999988E-002     1.6598452329635620     
  -4.7999999999999987E-002     1.6848356723785400     
  -4.7499999999999987E-002     1.7098113298416138     
  -4.6999999999999986E-002     1.7347579002380371     
  -4.6499999999999986E-002     1.7596604824066162     
  -4.5999999999999985E-002     1.7845034599304199     
  -4.5499999999999985E-002     1.8092702627182007     
  -4.4999999999999984E-002     1.8339438438415527     
  -4.4499999999999984E-002     1.8585071563720703     
  -4.3999999999999984E-002     1.8829420804977417     
  -4.3499999999999983E-002     1.9072308540344238     
  -4.2999999999999983E-002     1.9313546419143677     
  -4.2499999999999982E-002     1.9552944898605347     
  -4.1999999999999982E-002     1.9790318012237549     
  -4.1499999999999981E-002     2.0025467872619629     
  -4.0999999999999981E-002     2.0258204936981201     
  -4.0499999999999980E-002     2.0488338470458984     
  -3.9999999999999980E-002     2.0715663433074951     
  -3.9499999999999980E-002     2.0939962863922119     
  -3.8999999999999979E-002     2.1161026954650879     
  -3.8499999999999979E-002     2.1378636360168457     
  -3.7999999999999978E-002     2.1592564582824707     
  -3.7499999999999978E-002     2.1802592277526855     
  -3.6999999999999977E-002     2.2008488178253174     
  -3.6499999999999977E-002     2.2210018634796143     
  -3.5999999999999976E-002     2.2406935691833496     
  -3.5499999999999976E-002     2.2598996162414551     
  -3.4999999999999976E-002     2.2785975933074951     
  -3.4499999999999975E-002     2.2967631816864014     
  -3.3999999999999975E-002     2.3143718242645264     
  -3.3499999999999974E-002     2.3313968181610107     
  -3.2999999999999974E-002     2.3478116989135742     
  -3.2499999999999973E-002     2.3635926246643066     
  -3.1999999999999973E-002     2.3787140846252441     
  -3.1500000000000000E-002     2.3931503295898438     
  -3.1000000000000000E-002     2.4068748950958252     
  -3.0499999999999999E-002     2.4198617935180664     
  -2.9999999999999999E-002     2.4320876598358154     
  -2.9499999999999998E-002     2.4435272216796875     
  -2.8999999999999998E-002     2.4541530609130859     
  -2.8499999999999998E-002     2.4639372825622559     
  -2.7999999999999997E-002     2.4728519916534424     
  -2.7499999999999997E-002     2.4808695316314697     
  -2.6999999999999996E-002     2.4879612922668457     
  -2.6499999999999996E-002     2.4940993785858154     
  -2.5999999999999995E-002     2.4992547035217285     
  -2.5499999999999995E-002     2.5034010410308838     
  -2.4999999999999994E-002     2.5065135955810547     
  -2.4499999999999994E-002     2.5085659027099609     
  -2.3999999999999994E-002     2.5095326900482178     
  -2.3499999999999993E-002     2.5093884468078613     
  -2.2999999999999993E-002     2.5081093311309814     
  -2.2499999999999992E-002     2.5056705474853516     
  -2.1999999999999992E-002     2.5020456314086914     
  -2.1499999999999991E-002     2.4972076416015625     
  -2.0999999999999991E-002     2.4911262989044189     
  -2.0499999999999990E-002     2.4837710857391357     
  -1.9999999999999990E-002     2.4751152992248535     
  -1.9499999999999990E-002     2.4651341438293457     
  -1.8999999999999989E-002     2.4538056850433350     
  -1.8499999999999989E-002     2.4411065578460693     
  -1.7999999999999988E-002     2.4270124435424805     
  -1.7499999999999988E-002     2.4115040302276611     
  -1.6999999999999987E-002     2.3945608139038086     
  -1.6499999999999987E-002     2.3761637210845947     
  -1.5999999999999986E-002     2.3562934398651123     
  -1.5499999999999986E-002     2.3349266052246094     
  -1.4999999999999986E-002     2.3120412826538086     
  -1.4499999999999985E-002     2.2876169681549072     
  -1.3999999999999985E-002     2.2616341114044189     
  -1.3499999999999984E-002     2.2340688705444336     
  -1.2999999999999984E-002     2.2048974037170410     
  -1.2499999999999983E-002     2.1741032600402832     
  -1.1999999999999983E-002     2.1416723728179932     
  -1.1499999999999982E-002     2.1075890064239502     
  -1.0999999999999982E-002     2.0718388557434082     
  -1.0499999999999982E-002     2.0344088077545166     
  -9.9999999999999811E-003     1.9952871799468994     
  -9.4999999999999807E-003     1.9544649124145508     
  -8.9999999999999802E-003     1.9119341373443604     
  -8.4999999999999798E-003     1.8676866292953491     
  -7.9999999999999793E-003     1.8217129707336426     
  -7.4999999999999789E-003     1.7740018367767334     
  -6.9999999999999785E-003     1.7245408296585083     
  -6.4999999999999780E-003     1.6733237504959106     
  -5.9999999999999776E-003     1.6203470230102539     
  -5.4999999999999771E-003     1.5656054019927979     
  -4.9999999999999767E-003     1.5090926885604858     
  -4.4999999999999762E-003     1.4508075714111328     
  -3.9999999999999758E-003     1.3907517194747925     
  -3.4999999999999754E-003     1.3289252519607544     
  -2.9999999999999749E-003     1.2653334140777588     
  -2.4999999999999745E-003     1.1999845504760742     
  -1.9999999999999740E-003     1.1328866481781006     
  -1.4999999999999736E-003     1.0640470981597900     
  -9.9999999999997313E-004    0.99347180128097534     
  -4.9999999999997269E-004    0.92116957902908325     
   0.0000000000000000         0.84714704751968384     
   5.0000000000000044E-004    0.77140510082244873     
   1.0000000000000009E-003    0.69395315647125244     
   1.5000000000000013E-003    0.61480993032455444     
   2.0000000000000018E-003    0.53399103879928589     
   2.5000000000000022E-003    0.45151409506797791     
   3.0000000000000027E-003    0.36740326881408691     
   3.5000000000000031E-003    0.28168243169784546     
   4.0000000000000036E-003    0.19437664747238159     
   4.5000000000000040E-003    0.10551087558269501     
   5.0000000000000044E-003     1.5108466148376465E-002
   5.5000000000000049E-003    -7.6804846525192261E-002
   6.0000000000000053E-003   -0.17020501196384430     
   6.5000000000000058E-003   -0.26506653428077698     
   7.0000000000000062E-003   -0.36135733127593994     
   7.5000000000000067E-003   -0.45904666185379028     
   8.0000000000000071E-003   -0.55810129642486572     
   8.5000000000000075E-003   -0.65848553180694580     
   9.0000000000000080E-003   -0.76016139984130859     
   9.5000000000000084E-003   -0.86308687925338745     
   1.0000000000000009E-002   -0.96722239255905151     
   1.0500000000000009E-002    -1.0725222826004028     
   1.1000000000000010E-002    -1.1789448261260986     
   1.1500000000000010E-002    -1.2864481210708618     
   1.2000000000000011E-002    -1.3949868679046631     
   1.2500000000000011E-002    -1.5045164823532104     
   1.3000000000000012E-002    -1.6149898767471313     
   1.3500000000000012E-002    -1.7263602018356323     
   1.4000000000000012E-002    -1.8385735750198364     
   1.4500000000000013E-002    -1.9515762329101562     
   1.5000000000000013E-002    -2.0653123855590820     
   1.5500000000000014E-002    -2.1797235012054443     
   1.6000000000000014E-002    -2.2947492599487305     
   1.6500000000000015E-002    -2.4103286266326904     
   1.7000000000000015E-002    -2.5264055728912354     
   1.7500000000000016E-002    -2.6429216861724854     
   1.8000000000000016E-002    -2.7598178386688232     
   1.8500000000000016E-002    -2.8770349025726318     
   1.9000000000000017E-002    -2.9945089817047119     
   1.9500000000000017E-002    -3.1121764183044434     
   2.0000000000000018E-002    -3.2299733161926270     
   2.0500000000000018E-002    -3.3478348255157471     
   2.1000000000000019E-002    -3.4656925201416016     
   2.1500000000000019E-002    -3.5834720134735107     
   2.2000000000000020E-002    -3.7010993957519531     
   2.2500000000000020E-002    -3.8185007572174072     
   2.3000000000000020E-002    -3.9355995655059814     
   2.3500000000000021E-002    -4.0523247718811035     
   2.4000000000000021E-002    -4.1686067581176758     
   2.4500000000000022E-002    -4.2843732833862305     
   2.5000000000000022E-002    -4.3995528221130371     
   2.5500000000000023E-002    -4.5140743255615234     
   2.6000000000000023E-002    -4.6278691291809082     
   2.6500000000000024E-002    -4.7408647537231445     
   2.7000000000000024E-002    -4.8529868125915527     
   2.7500000000000024E-002    -4.9641599655151367     
   2.8000000000000025E-002    -5.0743045806884766     
   2.8500000000000025E-002    -5.1833405494689941     
   2.9000000000000026E-002    -5.2911877632141113     
   2.9500000000000026E-002    -5.3977661132812500     
   3.0000000000000027E-002    -5.5029945373535156     
   3.0500000000000027E-002    -5.6067948341369629     
   3.1000000000000028E-002    -5.7090902328491211     
   3.1500000000000028E-002    -5.8098049163818359     
   3.2000000000000028E-002    -5.9088683128356934     