   0.00000000      -3.31164585E-09
   5.00000024E-04  -9.52320800E-09
   1.00000005E-03  -1.43116621E-08
   1.50000001E-03  -1.65927023E-08
   2.00000009E-03  -1.55751394E-08
   2.49999994E-03  -1.08710578E-08
   3.00000003E-03  -2.56733190E-09
   3.50000011E-03   8.75098660E-09
   4.00000019E-03   2.20291945E-08
   4.49999981E-03   3.58223673E-08
   4.99999989E-03   4.84200200E-08
   5.49999997E-03   5.80059059E-08
   6.00000005E-03   6.28394190E-08
   6.50000013E-03   6.14425701E-08
   7.00000022E-03   5.27754906E-08
   7.49999983E-03   3.63836499E-08
   8.00000038E-03   1.25020039E-08
   8.50000046E-03  -1.78958164E-08
   8.99999961E-03  -5.31107212E-08
   9.49999969E-03  -9.07962843E-08
   9.99999978E-03  -1.28098918E-07
   1.04999999E-02  -1.61851816E-07
   1.09999999E-02  -1.88809480E-07
   1.15000000E-02  -2.05906062E-07
   1.20000001E-02  -2.10517342E-07
   1.25000002E-02  -2.00705799E-07
   1.30000003E-02  -1.75427971E-07
   1.35000004E-02  -1.34685720E-07
   1.40000004E-02  -7.96067070E-08
   1.44999996E-02  -1.24438504E-08
   1.49999997E-02   6.35100150E-08
   1.54999997E-02   1.44090194E-07
   1.60000008E-02   2.24502116E-07
   1.64999999E-02   2.99622570E-07
   1.70000009E-02   3.64340622E-07
   1.75000001E-02   4.13914705E-07
   1.79999992E-02   4.44320364E-07
   1.85000002E-02   4.52563114E-07
   1.89999994E-02   4.36932311E-07
   1.95000004E-02   3.97175455E-07
   1.99999996E-02   3.34577862E-07
   2.05000006E-02   2.51938303E-07
   2.09999997E-02   1.53439316E-07
   2.15000007E-02   4.44177601E-08
   2.19999999E-02  -6.89513442E-08
   2.25000009E-02  -1.80037688E-07
   2.30000000E-02  -2.82180736E-07
   2.34999992E-02  -3.69128287E-07
   2.40000002E-02  -4.35457963E-07
   2.44999994E-02  -4.76952891E-07
   2.50000004E-02  -4.90903403E-07
   2.54999995E-02  -4.76313346E-07
   2.60000005E-02  -4.33993989E-07
   2.64999997E-02  -3.66537421E-07
   2.70000007E-02  -2.78168642E-07
   2.74999999E-02  -1.74484995E-07
   2.80000009E-02  -6.20984366E-08
   2.85000000E-02   5.17961816E-08
   2.89999992E-02   1.59897965E-07
   2.95000002E-02   2.55290189E-07
   2.99999993E-02   3.31910542E-07
   3.05000003E-02   3.84968160E-07
   3.09999995E-02   4.11279586E-07
   3.15000005E-02   4.09498512E-07
   3.20000015E-02   3.80222957E-07
   3.24999988E-02   3.25971428E-07
   3.29999998E-02   2.51027899E-07
   3.35000008E-02   1.61165715E-07
   3.40000018E-02   6.32674357E-08
   3.44999991E-02  -3.51336880E-08
   3.50000001E-02  -1.26360490E-07
   3.55000012E-02  -2.03112421E-07
   3.59999985E-02  -2.58964604E-07
   3.64999995E-02  -2.88811520E-07
   3.70000005E-02  -2.89224374E-07
   3.75000015E-02  -2.58698009E-07
   3.79999988E-02  -1.97769381E-07
   3.84999998E-02  -1.08999338E-07
   3.90000008E-02   3.18213944E-09
   3.95000018E-02   1.32757023E-07
   3.99999991E-02   2.72508601E-07
   4.05000001E-02   4.14493513E-07
   4.10000011E-02   5.50564721E-07
   4.14999984E-02   6.72910460E-07
   4.19999994E-02   7.74574403E-07
   4.25000004E-02   8.49921150E-07
   4.30000015E-02   8.95016797E-07
   4.34999987E-02   9.07898311E-07
   4.39999998E-02   8.88714908E-07
   4.45000008E-02   8.39733389E-07
   4.50000018E-02   7.65204902E-07
   4.54999991E-02   6.71102555E-07
   4.60000001E-02   5.64749655E-07
   4.65000011E-02   4.54362294E-07
   4.69999984E-02   3.48534911E-07
   4.74999994E-02   2.55704094E-07
   4.80000004E-02   1.83627137E-07
   4.85000014E-02   1.38905762E-07
   4.89999987E-02   1.26587594E-07
   4.94999997E-02   1.49869734E-07
   5.00000007E-02   2.09923684E-07
   5.05000018E-02   3.05849653E-07
   5.09999990E-02   4.34762001E-07
   5.15000001E-02   5.91997207E-07
   5.20000011E-02   7.71433861E-07
   5.24999984E-02   9.65898153E-07
   5.29999994E-02   1.16762851E-06
   5.35000004E-02   1.36876906E-06
   5.40000014E-02   1.56186081E-06
   5.44999987E-02   1.74029663E-06
   5.49999997E-02   1.89871707E-06
   5.55000007E-02   2.03331888E-06
   5.60000017E-02   2.14206193E-06
   5.64999990E-02   2.22476160E-06
   5.70000000E-02   2.28306794E-06
   5.75000010E-02   2.32033267E-06
   5.79999983E-02   2.34137883E-06
   5.84999993E-02   2.35219113E-06
   5.90000004E-02   2.35954826E-06
   5.95000014E-02   2.37061704E-06
   5.99999987E-02   2.39254905E-06
   6.04999997E-02   2.43209524E-06
   6.10000007E-02   2.49525897E-06
   6.15000017E-02   2.58701562E-06
   6.19999990E-02   2.71111617E-06
   6.25000000E-02   2.86996874E-06
   6.30000010E-02   3.06461379E-06
   6.35000020E-02   3.29478735E-06
   6.40000030E-02   3.55906104E-06
   6.44999966E-02   3.85504609E-06
   6.49999976E-02   4.17964247E-06
   6.54999986E-02   4.52931999E-06
   6.59999996E-02   4.90040293E-06
   6.65000007E-02   5.28935334E-06
   6.70000017E-02   5.69302210E-06
   6.75000027E-02   6.10884217E-06
   6.80000037E-02   6.53499137E-06
   6.84999973E-02   6.97049381E-06
   6.89999983E-02   7.41524946E-06
   6.94999993E-02   7.87001136E-06
   7.00000003E-02   8.33632748E-06
   7.05000013E-02   8.81642791E-06
   7.10000023E-02   9.31308841E-06
   7.15000033E-02   9.82946040E-06
   7.19999969E-02   1.03689317E-05
   7.24999979E-02   1.09349967E-05
   7.29999989E-02   1.15311177E-05
   7.34999999E-02   1.21606190E-05
   7.40000010E-02   1.28266356E-05
   7.45000020E-02   1.35320870E-05
   7.50000030E-02   1.42796871E-05
   7.54999965E-02   1.50719497E-05
   7.59999976E-02   1.59112606E-05
   7.64999986E-02   1.67999442E-05
   7.69999996E-02   1.77403144E-05
   7.75000006E-02   1.87347687E-05
   7.80000016E-02   1.97858535E-05
   7.85000026E-02   2.08962883E-05
   7.90000036E-02   2.20690163E-05
   7.94999972E-02   2.33071987E-05
   7.99999982E-02   2.46141881E-05
   8.04999992E-02   2.59935186E-05
   8.10000002E-02   2.74488666E-05
   8.15000013E-02   2.89840045E-05
   8.20000023E-02   3.06027468E-05
   8.25000033E-02   3.23089225E-05
   8.29999968E-02   3.41063751E-05
   8.34999979E-02   3.59989317E-05
   8.39999989E-02   3.79904232E-05
   8.44999999E-02   4.00847202E-05
   8.50000009E-02   4.22858320E-05
   8.55000019E-02   4.45979458E-05
   8.60000029E-02   4.70255218E-05
   8.64999965E-02   4.95734057E-05
   8.69999975E-02   5.22468981E-05
   8.74999985E-02   5.50518198E-05
   8.79999995E-02   5.79945663E-05
   8.85000005E-02   6.10821589E-05
   8.90000015E-02   6.43222811E-05
   8.95000026E-02   6.77231801E-05
   9.00000036E-02   7.12936526E-05
   9.04999971E-02   7.50429972E-05
   9.09999982E-02   7.89809128E-05
   9.14999992E-02   8.31174184E-05
   9.20000002E-02   8.74626858E-05
   9.25000012E-02   9.20270904E-05
   9.30000022E-02   9.68209861E-05
   9.35000032E-02   1.01854785E-04
   9.39999968E-02   1.07138963E-04
   9.44999978E-02   1.12683992E-04
   9.49999988E-02   1.18500437E-04
   9.54999998E-02   1.24599115E-04
   9.60000008E-02   1.30991190E-04
   9.65000018E-02   1.37688316E-04
   9.70000029E-02   1.44702804E-04
   9.74999964E-02   1.52047767E-04
   9.79999974E-02   1.59737305E-04
   9.84999985E-02   1.67786740E-04
   9.89999995E-02   1.76212532E-04
   9.95000005E-02   1.85032273E-04
  0.100000001       1.94265027E-04
  0.100500003       2.03931035E-04
  0.101000004       2.14051601E-04
  0.101499997       2.24649062E-04
  0.101999998       2.35746586E-04
  0.102499999       2.47368065E-04
  0.103000000       2.59537919E-04
  0.103500001       2.72280828E-04
  0.104000002       2.85621558E-04
  0.104500003       2.99585168E-04
  0.104999997       3.14196688E-04
  0.105499998       3.29481176E-04
  0.105999999       3.45463865E-04
  0.106500000       3.62170307E-04
  0.107000001       3.79626756E-04
  0.107500002       3.97860160E-04
  0.108000003       4.16898576E-04
  0.108499996       4.36771486E-04
  0.108999997       4.57509799E-04
  0.109499998       4.79146576E-04
  0.109999999       5.01717557E-04
  0.110500000       5.25260810E-04
  0.111000001       5.49817050E-04
  0.111500002       5.75429935E-04
  0.112000003       6.02145679E-04
  0.112499997       6.30012772E-04
  0.112999998       6.59081968E-04
  0.113499999       6.89406821E-04
  0.114000000       7.21042510E-04
  0.114500001       7.54045555E-04
  0.115000002       7.88473582E-04
  0.115500003       8.24385264E-04
  0.115999997       8.61840032E-04
  0.116499998       9.00897663E-04
  0.116999999       9.41618404E-04
  0.117500000       9.84062674E-04
  0.118000001       1.02829200E-03
  0.118500002       1.07436837E-03
  0.119000003       1.12235465E-03
  0.119499996       1.17231545E-03
  0.119999997       1.22431747E-03
  0.120499998       1.27842987E-03
  0.120999999       1.33472390E-03
  0.121500000       1.39327499E-03
  0.122000001       1.45416218E-03
  0.122500002       1.51746848E-03
  0.123000003       1.58328167E-03
  0.123499997       1.65169360E-03
  0.123999998       1.72280124E-03
  0.124499999       1.79670553E-03
  0.125000000       1.87351170E-03
  0.125499994       1.95332966E-03
  0.126000002       2.03627325E-03
  0.126499996       2.12245900E-03
  0.127000004       2.21200660E-03
  0.127499998       2.30503851E-03
  0.128000006       2.40167975E-03
  0.128500000       2.50205630E-03
  0.128999993       2.60629575E-03
  0.129500002       2.71452824E-03
  0.129999995       2.82688532E-03
  0.130500004       2.94350018E-03
  0.130999997       3.06450832E-03
  0.131500006       3.19004734E-03
  0.131999999       3.32025788E-03
  0.132499993       3.45528428E-03
  0.133000001       3.59527371E-03
  0.133499995       3.74037866E-03
  0.134000003       3.89075838E-03
  0.134499997       4.04657610E-03
  0.135000005       4.20800084E-03
  0.135499999       4.37521003E-03
  0.136000007       4.54838574E-03
  0.136500001       4.72771749E-03
  0.136999995       4.91340179E-03
  0.137500003       5.10564214E-03
  0.137999997       5.30464621E-03
  0.138500005       5.51062776E-03
  0.138999999       5.72380656E-03
  0.139500007       5.94440661E-03
  0.140000001       6.17265701E-03
  0.140499994       6.40879013E-03
  0.141000003       6.65304158E-03
  0.141499996       6.90565072E-03
  0.142000005       7.16685737E-03
  0.142499998       7.43690971E-03
  0.143000007       7.71605643E-03
  0.143500000       8.00454803E-03
  0.143999994       8.30263924E-03
  0.144500002       8.61059409E-03
  0.144999996       8.92867334E-03
  0.145500004       9.25714988E-03
  0.145999998       9.59629845E-03
  0.146500006       9.94640123E-03
  0.147000000       1.03077460E-02
  0.147499993       1.06806308E-02
  0.148000002       1.10653527E-02
  0.148499995       1.14622200E-02
  0.149000004       1.18715521E-02
  0.149499997       1.22936750E-02
  0.150000006       1.27289146E-02
  0.150500000       1.31776100E-02
  0.150999993       1.36401020E-02
  0.151500002       1.41167389E-02
  0.151999995       1.46078700E-02
  0.152500004       1.51138566E-02
  0.152999997       1.56350583E-02
  0.153500006       1.61718428E-02
  0.153999999       1.67245809E-02
  0.154499993       1.72936451E-02
  0.155000001       1.78794172E-02
  0.155499995       1.84822772E-02
  0.156000003       1.91026088E-02
  0.156499997       1.97407994E-02
  0.157000005       2.03972384E-02
  0.157499999       2.10723225E-02
  0.158000007       2.17664484E-02
  0.158500001       2.24800128E-02
  0.158999994       2.32134163E-02
  0.159500003       2.39670649E-02
  0.159999996       2.47413702E-02
  0.160500005       2.55367476E-02
  0.160999998       2.63536014E-02
  0.161500007       2.71923598E-02
  0.162000000       2.80534551E-02
  0.162499994       2.89373156E-02
  0.163000003       2.98443679E-02
  0.163499996       3.07750404E-02
  0.164000005       3.17297578E-02
  0.164499998       3.27089541E-02
  0.165000007       3.37130688E-02
  0.165500000       3.47425193E-02
  0.165999994       3.57977450E-02
  0.166500002       3.68791632E-02
  0.166999996       3.79872061E-02
  0.167500004       3.91222946E-02
  0.167999998       4.02848423E-02
  0.168500006       4.14752588E-02
  0.169000000       4.26939689E-02
  0.169499993       4.39413860E-02
  0.170000002       4.52178866E-02
  0.170499995       4.65238728E-02
  0.171000004       4.78597358E-02
  0.171499997       4.92258631E-02
  0.172000006       5.06226122E-02
  0.172499999       5.20503484E-02
  0.172999993       5.35094664E-02
  0.173500001       5.50003201E-02
  0.173999995       5.65232560E-02
  0.174500003       5.80786057E-02
  0.174999997       5.96666932E-02
  0.175500005       6.12878427E-02
  0.175999999       6.29423633E-02
  0.176499993       6.46305457E-02
  0.177000001       6.63526505E-02
  0.177499995       6.81089088E-02
  0.178000003       6.98995665E-02
  0.178499997       7.17248619E-02
  0.179000005       7.35850111E-02
  0.179499999       7.54801929E-02
  0.180000007       7.74105862E-02
  0.180500001       7.93763325E-02
  0.180999994       8.13775510E-02
  0.181500003       8.34143534E-02
  0.181999996       8.54868069E-02
  0.182500005       8.75949562E-02
  0.182999998       8.97388235E-02
  0.183500007       9.19183940E-02
  0.184000000       9.41336676E-02
  0.184499994       9.63845700E-02
  0.185000002       9.86710489E-02
  0.185499996      0.100992963    
  0.186000004      0.103350155    
  0.186499998      0.105742440    
  0.187000006      0.108169556    
  0.187500000      0.110631265    
  0.187999994      0.113127381    
  0.188500002      0.115657568    
  0.188999996      0.118221410    
  0.189500004      0.120818555    
  0.189999998      0.123448558    
  0.190500006      0.126110911    
  0.191000000      0.128805101    
  0.191499993      0.131530583    
  0.192000002      0.134286672    
  0.192499995      0.137072697    
  0.193000004      0.139887974    
  0.193499997      0.142731786    
  0.194000006      0.145603329    
  0.194499999      0.148501709    
  0.194999993      0.151426032    
  0.195500001      0.154375345    
  0.195999995      0.157348558    
  0.196500003      0.160344601    
  0.196999997      0.163362369    
  0.197500005      0.166400596    
  0.197999999      0.169458002    
  0.198500007      0.172533333    
  0.199000001      0.175625190    
  0.199499995      0.178732097    
  0.200000003      0.181852564    
  0.200499997      0.184985027    
  0.201000005      0.188127786    
  0.201499999      0.191279188    
  0.202000007      0.194437414    
  0.202500001      0.197600558    
  0.202999994      0.200766638    
  0.203500003      0.203933686    
  0.203999996      0.207099646    
  0.204500005      0.210262373    
  0.204999998      0.213419601    
  0.205500007      0.216569096    
  0.206000000      0.219708532    
  0.206499994      0.222835466    
  0.207000002      0.225947455    
  0.207499996      0.229041860    
  0.208000004      0.232116148    
  0.208499998      0.235167727    
  0.209000006      0.238193840    
  0.209500000      0.241191581    
  0.209999993      0.244158104    
  0.210500002      0.247090369    
  0.210999995      0.249985307    
  0.211500004      0.252839804    
  0.211999997      0.255650580    
  0.212500006      0.258414358    
  0.213000000      0.261127770    
  0.213499993      0.263787270    
  0.214000002      0.266389340    
  0.214499995      0.268930465    
  0.215000004      0.271407008    
  0.215499997      0.273815215    
  0.216000006      0.276151180    
  0.216499999      0.278411210    
  0.216999993      0.280591309    
  0.217500001      0.282687426    
  0.217999995      0.284695536    
  0.218500003      0.286611557    
  0.218999997      0.288431346    
  0.219500005      0.290150672    
  0.219999999      0.291765243    
  0.220500007      0.293270916    
  0.221000001      0.294663340    
  0.221499994      0.295938104    
  0.222000003      0.297090799    
  0.222499996      0.298116833    
  0.223000005      0.299011678    
  0.223499998      0.299770951    
  0.224000007      0.300390035    
  0.224500000      0.300864518    
  0.224999994      0.301189750    
  0.225500003      0.301361114    
  0.225999996      0.301373899    
  0.226500005      0.301223338    
  0.226999998      0.300904602    
  0.227500007      0.300413042    
  0.228000000      0.299743980    
  0.228499994      0.298892647    
  0.229000002      0.297854364    
  0.229499996      0.296624452    
  0.230000004      0.295198143    
  0.230499998      0.293570846    
  0.231000006      0.291737884    
  0.231500000      0.289694875    
  0.231999993      0.287437320    
  0.232500002      0.284960777    
  0.232999995      0.282261044    
  0.233500004      0.279333681    
  0.233999997      0.276174366    
  0.234500006      0.272778928    
  0.234999999      0.269143164    
  0.235499993      0.265263081    
  0.236000001      0.261134505    
  0.236499995      0.256753445    
  0.237000003      0.252116174    
  0.237499997      0.247218952    
  0.238000005      0.242058054    
  0.238499999      0.236630082    
  0.238999993      0.230931848    
  0.239500001      0.224960238    
  0.239999995      0.218712121    
  0.240500003      0.212184384    
  0.240999997      0.205374241    
  0.241500005      0.198279038    
  0.241999999      0.190896034    
  0.242500007      0.183223084    
  0.243000001      0.175258055    
  0.243499994      0.166998938    
  0.244000003      0.158443972    
  0.244499996      0.149591342    
  0.245000005      0.140439525    
  0.245499998      0.130987287    
  0.246000007      0.121233746    
  0.246500000      0.111178003    
  0.246999994      0.100819230    
  0.247500002       9.01571214E-02
  0.247999996       7.91915506E-02
  0.248500004       6.79225624E-02
  0.248999998       5.63506223E-02
  0.249500006       4.44764942E-02
  0.250000000       3.23012024E-02
  0.250499994       1.98260769E-02
  0.250999987       7.05259666E-03
  0.251500010      -6.01743814E-03
  0.252000004      -1.93818379E-02
  0.252499998      -3.30382809E-02
  0.252999991      -4.69838195E-02
  0.253500015      -6.12152554E-02
  0.254000008      -7.57294595E-02
  0.254500002      -9.05229077E-02
  0.254999995     -0.105591685    
  0.255499989     -0.120931573    
  0.256000012     -0.136538088    
  0.256500006     -0.152406380    
  0.256999999     -0.168531522    
  0.257499993     -0.184908241    
  0.257999986     -0.201530725    
  0.258500010     -0.218392968    
  0.259000003     -0.235488787    
  0.259499997     -0.252811611    
  0.259999990     -0.270354331    
  0.260500014     -0.288109481    
  0.261000007     -0.306069613    
  0.261500001     -0.324227065    
  0.261999995     -0.342573464    
  0.262499988     -0.361099929    
  0.263000011     -0.379797339    
  0.263500005     -0.398656338    
  0.263999999     -0.417667121    
  0.264499992     -0.436819524    
  0.264999986     -0.456103057    
  0.265500009     -0.475506961    
  0.266000003     -0.495019913    
  0.266499996     -0.514630377    
  0.266999990     -0.534326613    
  0.267500013     -0.554096699    
  0.268000007     -0.573928177    
  0.268500000     -0.593808532    
  0.268999994     -0.613724828    
  0.269499987     -0.633663833    
  0.270000011     -0.653612375    
  0.270500004     -0.673556983    
  0.270999998     -0.693483829    
  0.271499991     -0.713379085    
  0.272000015     -0.733228564    
  0.272500008     -0.753017724    
  0.273000002     -0.772732079    
  0.273499995     -0.792356551    
  0.273999989     -0.811875999    
  0.274500012     -0.831275344    
  0.275000006     -0.850538969    
  0.275500000     -0.869651020    
  0.275999993     -0.888595700    
  0.276499987     -0.907356739    
  0.277000010     -0.925917625    
  0.277500004     -0.944262087    
  0.277999997     -0.962373495    
  0.278499991     -0.980235040    
  0.279000014     -0.997829735    
  0.279500008      -1.01514089    
  0.280000001      -1.03215170    
  0.280499995      -1.04884505    
  0.280999988      -1.06520426    
  0.281500012      -1.08121240    
  0.282000005      -1.09685302    
  0.282499999      -1.11210918    
  0.282999992      -1.12696445    
  0.283499986      -1.14140236    
  0.284000009      -1.15540648    
  0.284500003      -1.16896069    
  0.284999996      -1.18204880    
  0.285499990      -1.19465482    
  0.286000013      -1.20676327    
  0.286500007      -1.21835852    
  0.287000000      -1.22942531    
  0.287499994      -1.23994839    
  0.287999988      -1.24991274    
  0.288500011      -1.25930381    
  0.289000005      -1.26810670    
  0.289499998      -1.27630711    
  0.289999992      -1.28389096    
  0.290499985      -1.29084456    
  0.291000009      -1.29715407    
  0.291500002      -1.30280638    
  0.291999996      -1.30778849    
  0.292499989      -1.31208777    
  0.293000013      -1.31569171    
  0.293500006      -1.31858885    
  0.294000000      -1.32076788    
  0.294499993      -1.32221782    
  0.294999987      -1.32292819    
  0.295500010      -1.32288945    
  0.296000004      -1.32209218    
  0.296499997      -1.32052791    
  0.296999991      -1.31818843    
  0.297500014      -1.31506634    
  0.298000008      -1.31115496    
  0.298500001      -1.30644798    
  0.298999995      -1.30094004    
  0.299499989      -1.29462576    
  0.300000012      -1.28750086    
  0.300500005      -1.27956223    
  0.300999999      -1.27080655    
  0.301499993      -1.26123095    
  0.301999986      -1.25083327    
  0.302500010      -1.23961210    
  0.303000003      -1.22756684    
  0.303499997      -1.21469724    
  0.303999990      -1.20100427    
  0.304500014      -1.18648887    
  0.305000007      -1.17115271    
  0.305500001      -1.15499806    
  0.305999994      -1.13802803    
  0.306499988      -1.12024665    
  0.307000011      -1.10165834    
  0.307500005      -1.08226824    
  0.307999998      -1.06208277    
  0.308499992      -1.04110920    
  0.308999985      -1.01935589    
  0.309500009     -0.996830702    
  0.310000002     -0.973542571    
  0.310499996     -0.949502110    
  0.310999990     -0.924720168    
  0.311500013     -0.899208426    
  0.312000006     -0.872979522    
  0.312500000     -0.846046984    
  0.312999994     -0.818425059    
  0.313499987     -0.790128469    
  0.314000010     -0.761172116    
  0.314500004     -0.731572032    
  0.314999998     -0.701344967    
  0.315499991     -0.670507848    
  0.316000015     -0.639078319    
  0.316500008     -0.607074559    
  0.317000002     -0.574515343    
  0.317499995     -0.541419983    
  0.317999989     -0.507808328    
  0.318500012     -0.473700494    
  0.319000006     -0.439117372    
  0.319499999     -0.404079974    
  0.319999993     -0.368609458    
  0.320499986     -0.332728505    
  0.321000010     -0.296460390    
  0.321500003     -0.259828717    
  0.321999997     -0.222857431    
  0.322499990     -0.185570955    
  0.323000014     -0.147994146    
  0.323500007     -0.110152476    
  0.324000001      -7.20722526E-02
  0.324499995      -3.37796099E-02
  0.324999988       4.69808793E-03
  0.325500011       4.33332622E-02
  0.326000005       8.20988789E-02
  0.326499999      0.120966978    
  0.326999992      0.159909904    
  0.327499986      0.198899955    
  0.328000009      0.237908766    
  0.328500003      0.276907861    
  0.328999996      0.315869272    
  0.329499990      0.354764879    
  0.330000013      0.393566251    
  0.330500007      0.432245433    
  0.331000000      0.470774561    
  0.331499994      0.509125650    
  0.331999987      0.547270358    
  0.332500011      0.585180521    
  0.333000004      0.622828305    
  0.333499998      0.660185456    
  0.333999991      0.697224259    
  0.334500015      0.733917356    
  0.335000008      0.770237267    
  0.335500002      0.806156576    
  0.335999995      0.841648459    
  0.336499989      0.876686990    
  0.337000012      0.911245346    
  0.337500006      0.945297062    
  0.338000000      0.978817105    
  0.338499993       1.01178074    
  0.338999987       1.04416311    
  0.339500010       1.07593977    
  0.340000004       1.10708714    
  0.340499997       1.13758159    
  0.340999991       1.16740131    
  0.341500014       1.19652367    
  0.342000008       1.22492695    
  0.342500001       1.25259006    
  0.342999995       1.27949226    
  0.343499988       1.30561352    
  0.344000012       1.33093429    
  0.344500005       1.35543609    
  0.344999999       1.37910092    
  0.345499992       1.40191162    
  0.345999986       1.42385125    
  0.346500009       1.44490445    
  0.347000003       1.46505618    
  0.347499996       1.48429239    
  0.347999990       1.50259960    
  0.348500013       1.51996565    
  0.349000007       1.53637922    
  0.349500000       1.55182922    
  0.349999994       1.56630647    
  0.350499988       1.57980216    
  0.351000011       1.59230804    
  0.351500005       1.60381746    
  0.351999998       1.61432397    
  0.352499992       1.62382221    
  0.352999985       1.63230741    
  0.353500009       1.63977551    
  0.354000002       1.64622355    
  0.354499996       1.65164912    
  0.354999989       1.65605044    
  0.355500013       1.65942681    
  0.356000006       1.66177797    
  0.356500000       1.66310489    
  0.356999993       1.66340899    
  0.357499987       1.66269279    
  0.358000010       1.66095936    
  0.358500004       1.65821314    
  0.358999997       1.65445936    
  0.359499991       1.64970398    
  0.360000014       1.64395416    
  0.360500008       1.63721788    
  0.361000001       1.62950420    
  0.361499995       1.62082314    
  0.361999989       1.61118567    
  0.362500012       1.60060370    
  0.363000005       1.58909011    
  0.363499999       1.57665837    
  0.363999993       1.56332290    
  0.364499986       1.54909885    
  0.365000010       1.53400147    
  0.365500003       1.51804709    
  0.365999997       1.50125217    
  0.366499990       1.48363411    
  0.367000014       1.46521056    
  0.367500007       1.44599950    
  0.368000001       1.42601895    
  0.368499994       1.40528786    
  0.368999988       1.38382566    
  0.369500011       1.36165178    
  0.370000005       1.33878589    
  0.370499998       1.31524897    
  0.370999992       1.29106164    
  0.371499985       1.26624513    
  0.372000009       1.24082136    
  0.372500002       1.21481264    
  0.372999996       1.18824208    
  0.373499990       1.16113281    
  0.374000013       1.13350904    
  0.374500006       1.10539472    
  0.375000000       1.07681465    
  0.375499994       1.04779434    
  0.375999987       1.01835895    
  0.376500010      0.988534331    
  0.377000004      0.958346725    
  0.377499998      0.927821755    
  0.377999991      0.896985352    
  0.378500015      0.865863800    
  0.379000008      0.834483325    
  0.379500002      0.802869320    
  0.379999995      0.771047294    
  0.380499989      0.739042580    
  0.381000012      0.706880271    
  0.381500006      0.674585283    
  0.381999999      0.642182350    
  0.382499993      0.609696090    
  0.382999986      0.577150702    
  0.383500010      0.544570088    
  0.384000003      0.511977971    
  0.384499997      0.479398042    
  0.384999990      0.446853846    
  0.385500014      0.414368659    
  0.386000007      0.381965786    
  0.386500001      0.349668354    
  0.386999995      0.317499042    
  0.387499988      0.285480231    
  0.388000011      0.253634155    
  0.388500005      0.221983328    
  0.388999999      0.190549582    
  0.389499992      0.159354419    
  0.389999986      0.128419057    
  0.390500009       9.77638364E-02
  0.391000003       6.74089417E-02
  0.391499996       3.73741798E-02
  0.391999990       7.67838350E-03
  0.392500013      -2.16598343E-02
  0.393000007      -5.06225750E-02
  0.393500000      -7.91926533E-02
  0.393999994     -0.107353255    
  0.394499987     -0.135088488    
  0.395000011     -0.162383169    
  0.395500004     -0.189222753    
  0.395999998     -0.215593189    
  0.396499991     -0.241481110    
  0.397000015     -0.266873658    
  0.397500008     -0.291758537    
  0.398000002     -0.316123962    
  0.398499995     -0.339958668    
  0.398999989     -0.363252103    
  0.399500012     -0.385994047    
  0.400000006     -0.408174813    
  0.400500000     -0.429785162    
  0.400999993     -0.450816214    
  0.401499987     -0.471259743    
  0.402000010     -0.491108268    
  0.402500004     -0.510354459    
  0.402999997     -0.528991282    
  0.403499991     -0.547012687    
  0.404000014     -0.564413190    
  0.404500008     -0.581187367    
  0.405000001     -0.597330689    
  0.405499995     -0.612839639    
  0.405999988     -0.627710760    
  0.406500012     -0.641941547    
  0.407000005     -0.655530453    
  0.407499999     -0.668476462    
  0.407999992     -0.680778921    
  0.408499986     -0.692437947    
  0.409000009     -0.703454137    
  0.409500003     -0.713828683    
  0.409999996     -0.723563612    
  0.410499990     -0.732661068    
  0.411000013     -0.741123915    
  0.411500007     -0.748955607    
  0.412000000     -0.756159782    
  0.412499994     -0.762740195    
  0.412999988     -0.768701017    
  0.413500011     -0.774047017    
  0.414000005     -0.778783262    
  0.414499998     -0.782915175    
  0.414999992     -0.786448061    
  0.415499985     -0.789387584    
  0.416000009     -0.791740119    
  0.416500002     -0.793511748    
  0.416999996     -0.794708848    
  0.417499989     -0.795338392    
  0.418000013     -0.795407355    
  0.418500006     -0.794923007    
  0.419000000     -0.793893278    
  0.419499993     -0.792325974    
  0.419999987     -0.790229380    
  0.420500010     -0.787612498    
  0.421000004     -0.784484267    
  0.421499997     -0.780853868    
  0.421999991     -0.776730955    
  0.422500014     -0.772125721    
  0.423000008     -0.767048597    
  0.423500001     -0.761510074    
  0.423999995     -0.755520701    
  0.424499989     -0.749091208    
  0.425000012     -0.742232442    
  0.425500005     -0.734955490    
  0.425999999     -0.727271378    
  0.426499993     -0.719191313    
  0.426999986     -0.710726440    
  0.427500010     -0.701887727    
  0.428000003     -0.692686141    