   0.00000000       0.00000000    
   5.00000024E-04   0.00000000    
   1.00000005E-03   0.00000000    
   1.50000001E-03   0.00000000    
   2.00000009E-03   0.00000000    
   2.49999994E-03   0.00000000    
   3.00000003E-03   0.00000000    
   3.50000011E-03   0.00000000    
   4.00000019E-03   0.00000000    
   4.49999981E-03   0.00000000    
   4.99999989E-03   0.00000000    
   5.49999997E-03   0.00000000    
   6.00000005E-03   0.00000000    
   6.50000013E-03   0.00000000    
   7.00000022E-03  -3.28056330E-38
   7.49999983E-03  -1.51522874E-37
   8.00000038E-03  -6.01367886E-37
   8.50000046E-03  -2.10282605E-36
   8.99999961E-03  -6.59228267E-36
   9.49999969E-03  -1.87548445E-35
   9.99999978E-03  -4.88118289E-35
   1.04999999E-02  -1.16717543E-34
   1.09999999E-02  -2.56448970E-34
   1.15000000E-02  -5.14745854E-34
   1.20000001E-02  -9.28201747E-34
   1.25000002E-02  -1.44009657E-33
   1.30000003E-02  -1.67379210E-33
   1.35000004E-02  -3.96753175E-34
   1.40000004E-02   5.63592199E-33
   1.44999996E-02   2.40132587E-32
   1.49999997E-02   7.11203117E-32
   1.54999997E-02   1.80257956E-31
   1.60000008E-02   4.15871564E-31
   1.64999999E-02   8.97612094E-31
   1.70000009E-02   1.83971167E-30
   1.75000001E-02   3.61352267E-30
   1.79999992E-02   6.84402828E-30
   1.85000002E-02   1.25548559E-29
   1.89999994E-02   2.23805021E-29
   1.95000004E-02   3.88690790E-29
   1.99999996E-02   6.59035352E-29
   2.05000006E-02   1.09272811E-28
   2.09999997E-02   1.77426501E-28
   2.15000007E-02   2.82445041E-28
   2.19999999E-02   4.41251302E-28
   2.25000009E-02   6.77075790E-28
   2.30000000E-02   1.02116224E-27
   2.34999992E-02   1.51466696E-27
   2.40000002E-02   2.21065018E-27
   2.44999994E-02   3.17598848E-27
   2.50000004E-02   4.49294843E-27
   2.54999995E-02   6.26005117E-27
   2.60000005E-02   8.59172602E-27
   2.64999997E-02   1.16161232E-26
   2.70000007E-02   1.54703034E-26
   2.74999999E-02   2.02918629E-26
   2.80000009E-02   2.62060055E-26
   2.85000000E-02   3.33069585E-26
   2.89999992E-02   4.16326335E-26
   2.95000002E-02   5.11316836E-26
   2.99999993E-02   6.16221962E-26
   3.05000003E-02   7.27419179E-26
   3.09999995E-02   8.38905317E-26
   3.15000005E-02   9.41653094E-26
   3.20000015E-02   1.02292820E-25
   3.24999988E-02   1.06561020E-25
   3.29999998E-02   1.04756956E-25
   3.35000008E-02   9.41184892E-26
   3.40000018E-02   7.13090815E-26
   3.44999991E-02   3.24274341E-26
   3.50000001E-02  -2.69346356E-26
   3.55000012E-02  -1.11571544E-25
   3.59999985E-02  -2.26466115E-25
   3.64999995E-02  -3.76498436E-25
   3.70000005E-02  -5.66050249E-25
   3.75000015E-02  -7.98494129E-25
   3.79999988E-02  -1.07556323E-24
   3.84999998E-02  -1.39660507E-24
   3.90000008E-02  -1.75773237E-24
   3.95000018E-02  -2.15089217E-24
   3.99999991E-02  -2.56289864E-24
   4.05000001E-02  -2.97447341E-24
   4.10000011E-02  -3.35937245E-24
   4.14999984E-02  -3.68368303E-24
   4.19999994E-02  -3.90539199E-24
   4.25000004E-02  -3.97434553E-24
   4.30000015E-02  -3.83272055E-24
   4.34999987E-02  -3.41614519E-24
   4.39999998E-02  -2.65558230E-24
   4.45000008E-02  -1.48009712E-24
   4.50000018E-02   1.79411338E-25
   4.54999991E-02   2.38545917E-24
   4.60000001E-02   5.18822221E-24
   4.65000011E-02   8.61883077E-24
   4.69999984E-02   1.26818660E-23
   4.74999994E-02   1.73472801E-23
   4.80000004E-02   2.25421153E-23
   4.85000014E-02   2.81423698E-23
   4.89999987E-02   3.39656621E-23
   4.94999997E-02   3.97651908E-23
   5.00000007E-02   4.52258248E-23
   5.05000018E-02   4.99629756E-23
   5.09999990E-02   5.35251149E-23
   5.15000001E-02   5.54006222E-23
   5.20000011E-02   5.50297629E-23
   5.24999984E-02   5.18221914E-23
   5.29999994E-02   4.51806073E-23
   5.35000004E-02   3.45304045E-23
   5.40000014E-02   1.93553492E-23
   5.44999987E-02  -7.61370138E-25
   5.49999997E-02  -2.60917338E-23
   5.55000007E-02  -5.67145426E-23
   5.60000017E-02  -9.24659019E-23
   5.64999990E-02  -1.32891420E-22
   5.70000000E-02  -1.77202103E-22
   5.75000010E-02  -2.24238016E-22
   5.79999983E-02  -2.72442567E-22
   5.84999993E-02  -3.19851164E-22
   5.90000004E-02  -3.64098031E-22
   5.95000014E-02  -4.02443992E-22
   5.99999987E-02  -4.31828266E-22
   6.04999997E-02  -4.48946825E-22
   6.10000007E-02  -4.50358293E-22
   6.15000017E-02  -4.32616723E-22
   6.19999990E-02  -3.92431416E-22
   6.25000000E-02  -3.26849408E-22
   6.30000010E-02  -2.33457188E-22
   6.35000020E-02  -1.10594904E-22
   6.40000030E-02   4.24256305E-23
   6.44999966E-02   2.25107480E-22
   6.49999976E-02   4.35570925E-22
   6.54999986E-02   6.70385559E-22
   6.59999996E-02   9.24441684E-22
   6.65000007E-02   1.19087694E-21
   6.70000017E-02   1.46106854E-21
   6.75000027E-02   1.72470167E-21
   6.80000037E-02   1.96992720E-21
   6.84999973E-02   2.18360899E-21
   6.89999983E-02   2.35167064E-21
   6.94999993E-02   2.45953370E-21
   7.00000003E-02   2.49265041E-21
   7.05000013E-02   2.43711198E-21
   7.10000023E-02   2.28032389E-21
   7.15000033E-02   2.01172203E-21
   7.19999969E-02   1.62350816E-21
   7.24999979E-02   1.11137531E-21
   7.29999989E-02   4.75182546E-22
   7.34999999E-02  -2.80440961E-22
   7.40000010E-02  -1.14562213E-21
   7.45000020E-02  -2.10490667E-21
   7.50000030E-02  -3.13712327E-21
   7.54999965E-02  -4.21545417E-21
   7.59999976E-02  -5.30774213E-21
   7.64999986E-02  -6.37706411E-21
   7.69999996E-02  -7.38254415E-21
   7.75000006E-02  -8.28044305E-21
   7.80000016E-02  -9.02546218E-21
   7.85000026E-02  -9.57227945E-21
   7.90000036E-02  -9.87722879E-21
   7.94999972E-02  -9.90010793E-21
   7.99999982E-02  -9.60603957E-21
   8.04999992E-02  -8.96728973E-21
   8.10000002E-02  -7.96501017E-21
   8.15000013E-02  -6.59078287E-21
   8.20000023E-02  -4.84791251E-21
   8.25000033E-02  -2.75237321E-21
   8.29999968E-02  -3.33357245E-22
   8.34999979E-02   2.36665037E-21
   8.39999989E-02   5.29228338E-21
   8.44999999E-02   8.37623687E-21
   8.50000009E-02   1.15407350E-20
   8.55000019E-02   1.46994906E-20
   8.60000029E-02   1.77600977E-20
   8.64999965E-02   2.06268229E-20
   8.69999975E-02   2.32036521E-20
   8.74999985E-02   2.53975047E-20
   8.79999995E-02   2.71214784E-20
   8.85000005E-02   2.82979909E-20
   8.90000015E-02   2.88616240E-20
   8.95000026E-02   2.87616224E-20
   9.00000036E-02   2.79638293E-20
   9.04999971E-02   2.64519694E-20
   9.09999982E-02   2.42282397E-20
   9.14999992E-02   2.13130678E-20
   9.20000002E-02   1.77441147E-20
   9.25000012E-02   1.35744717E-20
   9.30000022E-02   8.87017840E-21
   9.35000032E-02   3.70715209E-21
   9.39999968E-02  -1.83230805E-21
   9.44999978E-02  -7.66324515E-21
   9.49999988E-02  -1.37017460E-20
   9.54999998E-02  -1.98684292E-20
   9.60000008E-02  -2.60914075E-20
   9.65000018E-02  -3.23084921E-20
   9.70000029E-02  -3.84684447E-20
   9.74999964E-02  -4.45310098E-20
   9.79999974E-02  -5.04656720E-20
   9.84999985E-02  -5.62490571E-20
   9.89999995E-02  -6.18608766E-20
   9.95000005E-02  -6.72786511E-20
  0.100000001      -7.24713291E-20
  0.100500003      -7.73920585E-20
  0.101000004      -8.19706325E-20
  0.101499997      -8.61057536E-20
  0.101999998      -8.96581260E-20
  0.102499999      -9.24444645E-20
  0.103000000      -9.42333912E-20
  0.103500001      -9.47435742E-20
  0.104000002      -9.36448328E-20
  0.104500003      -9.05627320E-20
  0.104999997      -8.50868674E-20
  0.105499998      -7.67832148E-20
  0.105999999      -6.52107513E-20
  0.106500000      -4.99419794E-20
  0.107000001      -3.05871680E-20
  0.107500002      -6.82179002E-21
  0.108000003       2.15838612E-20
  0.108499996       5.47336106E-20
  0.108999997       9.25743642E-20
  0.109499998       1.34866603E-19
  0.109999999       1.81157453E-19
  0.110500000       2.30758756E-19
  0.111000001       2.82731186E-19
  0.111500002       3.35876222E-19
  0.112000003       3.88737458E-19
  0.112499997       4.39612736E-19
  0.112999998       4.86578035E-19
  0.113499999       5.27522803E-19
  0.114000000       5.60199126E-19
  0.114500001       5.82281798E-19
  0.115000002       5.91440859E-19
  0.115500003       5.85423172E-19
  0.115999997       5.62142897E-19
  0.116499998       5.19777291E-19
  0.116999999       4.56865242E-19
  0.117500000       3.72404932E-19
  0.118000001       2.65947588E-19
  0.118500002       1.37682365E-19
  0.119000003      -1.14913231E-20
  0.119499996      -1.79907027E-19
  0.119999997      -3.65095189E-19
  0.120499998      -5.63770633E-19
  0.120999999      -7.71846779E-19
  0.121500000      -9.84477071E-19
  0.122000001      -1.19612788E-18
  0.122500002      -1.40068003E-18
  0.123000003      -1.59156147E-18
  0.123499997      -1.76190608E-18
  0.123999998      -1.90473784E-18
  0.124499999      -2.01317522E-18
  0.125000000      -2.08065268E-18
  0.125499994      -2.10114732E-18
  0.126000002      -2.06941316E-18
  0.126499996      -1.98120717E-18
  0.127000004      -1.83350352E-18
  0.127499998      -1.62468540E-18
  0.128000006      -1.35471019E-18
  0.128500000      -1.02523660E-18
  0.128999993      -6.39710156E-19
  0.129500002      -2.03399318E-19
  0.129999995       2.76620648E-19
  0.130500004       7.91541898E-19
  0.130999997       1.33095036E-18
  0.131500006       1.88301566E-18
  0.131999999       2.43472817E-18
  0.132499993       2.97218753E-18
  0.133000001       3.48093732E-18
  0.133499995       3.94633353E-18
  0.134000003       4.35393133E-18
  0.134499997       4.68989528E-18
  0.135000005       4.94141196E-18
  0.135499999       5.09708280E-18
  0.136000007       5.14730507E-18
  0.136500001       5.08461471E-18
  0.136999995       4.90397459E-18
  0.137500003       4.60302312E-18
  0.137999997       4.18223304E-18
  0.138500005       3.64501893E-18
  0.138999999       2.99775072E-18
  0.139500007       2.24969138E-18
  0.140000001       1.41285416E-18
  0.140499994       5.01776342E-19
  0.141000003      -4.66772901E-19
  0.141499996      -1.47416375E-18
  0.142000005      -2.50031222E-18
  0.142499998      -3.52415502E-18
  0.143000007      -4.52413863E-18
  0.143500000      -5.47872904E-18
  0.143999994      -6.36692333E-18
  0.144500002      -7.16874589E-18
  0.144999996      -7.86572414E-18
  0.145500004      -8.44130122E-18
  0.145999998      -8.88121903E-18
  0.146500006      -9.17381846E-18
  0.147000000      -9.31027431E-18
  0.147499993      -9.28476323E-18
  0.148000002      -9.09451996E-18
  0.148499995      -8.73986628E-18
  0.149000004      -8.22410510E-18
  0.149499997      -7.55339397E-18
  0.150000006      -6.73654733E-18
  0.150500000      -5.78476106E-18
  0.150999993      -4.71133994E-18
  0.151500002      -3.53137466E-18
  0.151999995      -2.26141171E-18
  0.152500004      -9.19138902E-19
  0.152999997       4.76931868E-19
  0.153500006       1.90774050E-18
  0.153999999       3.35395786E-18
  0.154499993       4.79617848E-18
  0.155000001       6.21510673E-18
  0.155499995       7.59168416E-18
  0.156000003       8.90720491E-18
  0.156499997       1.01433387E-17
  0.157000005       1.12822390E-17
  0.157499999       1.23064987E-17
  0.158000007       1.31992573E-17
  0.158500001       1.39441823E-17
  0.158999994       1.45255943E-17
  0.159500003       1.49285355E-17
  0.159999996       1.51389785E-17
  0.160500005       1.51440144E-17
  0.160999998       1.49321701E-17
  0.161500007       1.44937495E-17
  0.162000000       1.38212360E-17
  0.162499994       1.29097863E-17
  0.163000003       1.17577479E-17
  0.163499996       1.03671241E-17
  0.164000005       8.74419491E-18
  0.164499998       6.89991509E-18
  0.165000007       4.85045187E-18
  0.165500000       2.61742032E-18
  0.165999994       2.28228902E-19
  0.166500002      -2.28394576E-18
  0.166999996      -4.88021962E-18
  0.167500004      -7.51641817E-18
  0.167999998      -1.01434751E-17
  0.168500006      -1.27083463E-17
  0.169000000      -1.51549960E-17
  0.169499993      -1.74256796E-17
  0.170000002      -1.94623538E-17
  0.170499995      -2.12084526E-17
  0.171000004      -2.26106214E-17
  0.171499997      -2.36206073E-17
  0.172000006      -2.41972448E-17
  0.172499999      -2.43083285E-17
  0.172999993      -2.39323849E-17
  0.173500001      -2.30603314E-17
  0.173999995      -2.16967605E-17
  0.174500003      -1.98609225E-17
  0.174999997      -1.75873041E-17
  0.175500005      -1.49257727E-17
  0.175999999      -1.19409783E-17
  0.176499993      -8.71148654E-18
  0.177000001      -5.32805603E-18
  0.177499995      -1.89149054E-18
  0.178000003       1.49012751E-18
  0.178499997       4.70476096E-18
  0.179000005       7.64013875E-18
  0.179499999       1.01877880E-17
  0.180000007       1.22473999E-17
  0.180500001       1.37312213E-17
  0.180999994       1.45684671E-17
  0.181500003       1.47092416E-17
  0.181999996       1.41287164E-17
  0.182500005       1.28297723E-17
  0.182999998       1.08459252E-17
  0.183500007       8.24246934E-18
  0.184000000       5.11722630E-18
  0.184499994       1.59983141E-18
  0.185000002      -2.15005086E-18
  0.185499996      -5.94607699E-18
  0.186000004      -9.57969862E-18
  0.186499998      -1.28255744E-17
  0.187000006      -1.54488916E-17
  0.187500000      -1.72131753E-17
  0.187999994      -1.78889206E-17
  0.188500002      -1.72637243E-17
  0.188999996      -1.51508320E-17
  0.189500004      -1.14008104E-17
  0.189999998      -5.90978692E-18
  0.190500006       1.37105610E-18
  0.191000000       1.04271799E-17
  0.191499993       2.11742438E-17
  0.192000002       3.34528251E-17
  0.192499995       4.70255785E-17
  0.193000004       6.15766152E-17
  0.193499997       7.67130476E-17
  0.194000006       9.19696463E-17
  0.194499999       1.06816116E-16
  0.194999993       1.20667361E-16
  0.195500001       1.32896227E-16
  0.195999995       1.42849221E-16
  0.196500003       1.49864388E-16
  0.196999997       1.53291139E-16
  0.197500005       1.52511061E-16
  0.197999999       1.46961884E-16
  0.198500007       1.36159276E-16
  0.199000001       1.19719372E-16
  0.199499995       9.73823787E-17
  0.200000003       6.90303331E-17
  0.200499997       3.47077937E-17
  0.201000005      -5.36515301E-18
  0.201499999      -5.07818817E-17
  0.202000007      -1.00939262E-16
  0.202500001      -1.55040990E-16
  0.202999994      -2.12095621E-16
  0.203500003      -2.70927432E-16
  0.203999996      -3.30193930E-16
  0.204500005      -3.88399891E-16
  0.204999998      -4.43928221E-16
  0.205500007      -4.95075088E-16
  0.206000000      -5.40075248E-16
  0.206499994      -5.77153904E-16
  0.207000002      -6.04565584E-16
  0.207499996      -6.20640787E-16
  0.208000004      -6.23838177E-16
  0.208499998      -6.12788686E-16
  0.209000006      -5.86347652E-16
  0.209500000      -5.43635169E-16
  0.209999993      -4.84083617E-16
  0.210500002      -4.07473934E-16
  0.210999995      -3.13964064E-16
  0.211500004      -2.04116756E-16
  0.211999997      -7.89139635E-17
  0.212500006       6.02357091E-17
  0.213000000       2.11499429E-16
  0.213499993       3.72632505E-16
  0.214000002       5.41003914E-16
  0.214499995       7.13626952E-16
  0.215000004       8.87204808E-16
  0.215499997       1.05818577E-15
  0.216000006       1.22282515E-15
  0.216499999       1.37724720E-15
  0.216999993       1.51753946E-15
  0.217500001       1.63982603E-15
  0.217999995       1.74034121E-15
  0.218500003       1.81553656E-15
  0.218999997       1.86216149E-15
  0.219500005       1.87733608E-15
  0.219999999       1.85864651E-15
  0.220500007       1.80421469E-15
  0.221000001       1.71276108E-15
  0.221499994       1.58365324E-15
  0.222000003       1.41697325E-15
  0.222499996       1.21352939E-15
  0.223000005       9.74860172E-16
  0.223499998       7.03281927E-16
  0.224000007       4.01816363E-16
  0.224500000       7.42228502E-17
  0.224999994      -2.75111060E-16
  0.225500003      -6.41189330E-16
  0.225999996      -1.01847972E-15
  0.226500005      -1.40102712E-15
  0.226999998      -1.78254314E-15
  0.227500007      -2.15650501E-15
  0.228000000      -2.51628226E-15
  0.228499994      -2.85526442E-15
  0.229000002      -3.16697953E-15
  0.229499996      -3.44522372E-15
  0.230000004      -3.68418124E-15
  0.230499998      -3.87855667E-15
  0.231000006      -4.02366357E-15
  0.231500000      -4.11555479E-15
  0.231999993      -4.15109290E-15
  0.232500002      -4.12803370E-15
  0.232999995      -4.04508419E-15
  0.233500004      -3.90193689E-15
  0.233999997      -3.69931179E-15
  0.234500006      -3.43892920E-15
  0.234999999      -3.12351488E-15
  0.235499993      -2.75677249E-15
  0.236000001      -2.34332554E-15
  0.236499995      -1.88856922E-15
  0.237000003      -1.39870339E-15
  0.237499997      -8.80513460E-16
  0.238000005      -3.41291438E-16
  0.238499999       2.11262127E-16
  0.238999993       7.69278023E-16
  0.239500001       1.32476249E-15
  0.239999995       1.86984662E-15
  0.240500003       2.39682054E-15
  0.240999997       2.89845484E-15
  0.241500005       3.36795504E-15
  0.241999999       3.79927226E-15
  0.242500007       4.18710409E-15
  0.243000001       4.52700994E-15
  0.243499994       4.81561482E-15
  0.244000003       5.05049366E-15
  0.244499996       5.23039414E-15
  0.245000005       5.35519174E-15
  0.245499998       5.42583302E-15
  0.246000007       5.44438728E-15
  0.246500000       5.41399362E-15
  0.246999994       5.33872966E-15
  0.247500002       5.22355181E-15
  0.247999996       5.07416442E-15
  0.248500004       4.89686942E-15
  0.248999998       4.69841087E-15
  0.249500006       4.48578950E-15
  0.250000000       4.26608059E-15
  0.250499994       4.04624801E-15
  0.250999987       3.83292488E-15
  0.251500010       3.63217045E-15
  0.252000004       3.44938307E-15
  0.252499998       3.28897790E-15
  0.252999991       3.15429458E-15
  0.253500015       3.04750003E-15
  0.254000008       2.96925155E-15
  0.254500002       2.91887405E-15
  0.254999995       2.89400495E-15
  0.255499989       2.89080783E-15
  0.256000012       2.90373948E-15
  0.256500006       2.92558870E-15
  0.256999999       2.94797069E-15
  0.257499993       2.96076068E-15
  0.257999986       2.95298026E-15
  0.258500010       2.91247917E-15
  0.259000003       2.82614830E-15
  0.259499997       2.68077140E-15
  0.259999990       2.46281225E-15
  0.260500014       2.15887755E-15
  0.261000007       1.75599988E-15
  0.261500001       1.24220643E-15
  0.261999995       6.06910118E-16
  0.262499988      -1.58983942E-16
  0.263000011      -1.06265217E-15
  0.263500005      -2.10850006E-15
  0.263999999      -3.29855255E-15
  0.264499992      -4.63167272E-15
  0.264999986      -6.10356229E-15
  0.265500009      -7.70633371E-15
  0.266000003      -9.42860072E-15
  0.266499996      -1.12552366E-14
  0.266999990      -1.31674050E-14
  0.267500013      -1.51427705E-14
  0.268000007      -1.71554513E-14
  0.268500000      -1.91764481E-14
  0.268999994      -2.11738196E-14
  0.269499987      -2.31131388E-14
  0.270000011      -2.49579918E-14
  0.270500004      -2.66705061E-14
  0.270999998      -2.82120637E-14
  0.271499991      -2.95435876E-14
  0.272000015      -3.06270918E-14
  0.272500008      -3.14252442E-14
  0.273000002      -3.19035129E-14
  0.273499995      -3.20299173E-14
  0.273999989      -3.17756143E-14
  0.274500012      -3.11166566E-14
  0.275000006      -3.00346431E-14
  0.275500000      -2.85155031E-14
  0.275999993      -2.65522721E-14
  0.276499987      -2.41452366E-14
  0.277000010      -2.13006509E-14
  0.277500004      -1.80317272E-14
  0.277999997      -1.43609218E-14
  0.278499991      -1.03166546E-14
  0.279000014      -5.93445301E-15
  0.279500008      -1.25709229E-15
  0.280000001       3.66611614E-15
  0.280499995       8.78088733E-15
  0.280999988       1.40263980E-14
  0.281500012       1.93392682E-14
  0.282000005       2.46527059E-14
  0.282499999       2.98975051E-14
  0.282999992       3.50037517E-14
  0.283499986       3.99018045E-14
  0.284000009       4.45238871E-14
  0.284500003       4.88049068E-14
  0.284999996       5.26845447E-14
  0.285499990       5.61075099E-14
  0.286000013       5.90248540E-14
  0.286500007       6.13963633E-14
  0.287000000       6.31892406E-14
  0.287499994       6.43806772E-14
  0.287999988       6.49579606E-14
  0.288500011       6.49187396E-14
  0.289000005       6.42714302E-14
  0.289499998       6.30352297E-14
  0.289999992       6.12399739E-14
  0.290499985       5.89253106E-14
  0.291000009       5.61408355E-14
  0.291500002       5.29449565E-14
  0.291999996       4.94031865E-14
  0.292499989       4.55874284E-14
  0.293000013       4.15749927E-14
  0.293500006       3.74456054E-14
  0.294000000       3.32826757E-14
  0.294499993       2.91672102E-14
  0.294999987       2.51796468E-14
  0.295500010       2.13964317E-14
  0.296000004       1.78891935E-14
  0.296499997       1.47215919E-14
  0.296999991       1.19482027E-14
  0.297500014       9.61335893E-15
  0.298000008       7.75287393E-15
  0.298500001       6.38294806E-15
  0.298999995       5.51381179E-15
  0.299499989       5.13580301E-15
  0.300000012       5.22618397E-15
  0.300500005       5.74914380E-15
  0.300999999       6.65295422E-15
  0.301499993       7.87338216E-15
  0.301999986       9.33141639E-15
  0.302500010       1.09383793E-14
  0.303000003       1.25942280E-14
  0.303499997       1.41903921E-14
  0.303999990       1.56148864E-14
  0.304500014       1.67483452E-14
  0.305000007       1.74685519E-14
  0.305500001       1.76567033E-14
  0.305999994       1.71951347E-14
  0.306499988       1.59730017E-14
  0.307000011       1.38868468E-14
  0.307500005       1.08443036E-14
  0.307999998       6.76664086E-15
  0.308499992       1.58934202E-15
  0.308999985      -4.73448854E-15
  0.309500009      -1.22318512E-14
  0.310000002      -2.09104195E-14
  0.310499996      -3.07565557E-14
  0.310999990      -4.17325916E-14
  0.311500013      -5.37797718E-14
  0.312000006      -6.68157072E-14
  0.312500000      -8.07361990E-14
  0.312999994      -9.54156594E-14
  0.313499987      -1.10708101E-13
  0.314000010      -1.26449036E-13
  0.314500004      -1.42457565E-13
  0.314999998      -1.58538005E-13
  0.315499991      -1.74483732E-13
  0.316000015      -1.90078137E-13
  0.316500008      -2.05101290E-13
  0.317000002      -2.19328638E-13
  0.317499995      -2.32536185E-13
  0.317999989      -2.44505723E-13
  0.318500012      -2.55026875E-13
  0.319000006      -2.63900148E-13
  0.319499999      -2.70941906E-13
  0.319999993      -2.75983880E-13
  0.320499986      -2.78879513E-13
  0.321000010      -2.79504799E-13
  0.321500003      -2.77765387E-13
  0.321999997      -2.73587386E-13
  0.322499990      -2.66935562E-13
  0.323000014      -2.57795142E-13
  0.323500007      -2.46188866E-13
  0.324000001      -2.32167855E-13
  0.324499995      -2.15820824E-13
  0.324999988      -1.97258036E-13
  0.325500011      -1.76623879E-13
  0.326000005      -1.54092274E-13
  0.326499999      -1.29863337E-13
  0.326999992      -1.04162156E-13
  0.327499986      -7.72308785E-14
  0.328000009      -4.93332690E-14
  0.328500003      -2.07467117E-14
  0.328999996       8.23547434E-15
  0.329499990       3.73188419E-14
  0.330000013       6.61987080E-14
  0.330500007       9.45692567E-14
  0.331000000       1.22125820E-13
  0.331499994       1.48577345E-13
  0.331999987       1.73638461E-13
  0.332500011       1.97036343E-13
  0.333000004       2.18508371E-13
  0.333499998       2.37821508E-13
  0.333999991       2.54756286E-13
  0.334500015       2.69114944E-13
  0.335000008       2.80732577E-13
  0.335500002       2.89462600E-13
  0.335999995       2.95191307E-13
  0.336499989       2.97822016E-13
  0.337000012       2.97293359E-13
  0.337500006       2.93564435E-13
  0.338000000       2.86619307E-13
  0.338499993       2.76471608E-13
  0.338999987       2.63145246E-13
  0.339500010       2.46689062E-13
  0.340000004       2.27168477E-13
  0.340499997       2.04660182E-13
  0.340999991       1.79252311E-13
  0.341500014       1.51036383E-13
  0.342000008       1.20107876E-13
  0.342500001       8.65600181E-14
  0.342999995       5.04832111E-14
  0.343499988       1.19592878E-14
  0.344000012      -2.89446676E-14
  0.344500005      -7.21735226E-14
  0.344999999      -1.17691460E-13
  0.345499992      -1.65484840E-13
  0.345999986      -2.15562756E-13
  0.346500009      -2.67963305E-13
  0.347000003      -3.22752404E-13
  0.347499996      -3.80023839E-13
  0.347999990      -4.39905545E-13
  0.348500013      -5.02556655E-13
  0.349000007      -5.68164764E-13
  0.349500000      -6.36960049E-13
  0.349999994      -7.09194422E-13
  0.350499988      -7.85155415E-13
  0.351000011      -8.65156850E-13
  0.351500005      -9.49546648E-13
  0.351999998      -1.03869300E-12
  0.352499992      -1.13299398E-12
  0.352999985      -1.23286331E-12
  0.353500009      -1.33873533E-12
  0.354000002      -1.45108524E-12
  0.354499996      -1.57035637E-12
  0.354999989      -1.69703986E-12
  0.355500013      -1.83161320E-12
  0.356000006      -1.97460386E-12
  0.356500000      -2.12648952E-12
  0.356999993      -2.28777023E-12
  0.357499987      -2.45897356E-12
  0.358000010      -2.64059954E-12
  0.358500004      -2.83313043E-12
  0.358999997      -3.03711201E-12
  0.359499991      -3.25297168E-12
  0.360000014      -3.48127300E-12
  0.360500008      -3.72248933E-12
  0.361000001      -3.97712939E-12
  0.361499995      -4.24563076E-12
  0.361999989      -4.52857413E-12
  0.362500012      -4.82637888E-12
  0.363000005      -5.13962744E-12
  0.363499999      -5.46875566E-12
  0.363999993      -5.81432688E-12
  0.364499986      -6.17685156E-12
  0.365000010      -6.55676555E-12
  0.365500003      -6.95479698E-12
  0.365999997      -7.37141858E-12
  0.366499990      -7.80713948E-12
  0.367000014      -8.26261368E-12
  0.367500007      -8.73849864E-12
  0.368000001      -9.23533645E-12
  0.368499994      -9.75400316E-12
  0.368999988      -1.02950435E-11
  0.369500011      -1.08592215E-11
  0.370000005      -1.14472641E-11
  0.370499998      -1.20599000E-11
  0.370999992      -1.26980744E-11
  0.371499985      -1.33623694E-11
  0.372000009      -1.40538033E-11
  0.372500002      -1.47731775E-11
  0.372999996      -1.55212908E-11
  0.373499990      -1.62988720E-11
  0.374000013      -1.71072323E-11
  0.374500006      -1.79471681E-11
  0.375000000      -1.88195570E-11
  0.375499994      -1.97254140E-11
  0.375999987      -2.06659030E-11
  0.376500010      -2.16417544E-11
  0.377000004      -2.26539863E-11
  0.377499998      -2.37037594E-11
  0.377999991      -2.47919532E-11
  0.378500015      -2.59192893E-11
  0.379000008      -2.70879551E-11
  0.379500002      -2.82980930E-11
  0.379999995      -2.95510109E-11
  0.380499989      -3.08480221E-11
  0.381000012      -3.21911664E-11
  0.381500006      -3.35805828E-11
  0.381999999      -3.50180197E-11
  0.382499993      -3.65043551E-11
  0.382999986      -3.80416185E-11
  0.383500010      -3.96312705E-11
  0.384000003      -4.12744700E-11
  0.384499997      -4.29729689E-11
  0.384999990      -4.47276417E-11
  0.385500014      -4.65413923E-11
  0.386000007      -4.84153863E-11
  0.386500001      -5.03516638E-11
  0.386999995      -5.23516785E-11
  0.387499988      -5.44177585E-11
  0.388000011      -5.65516557E-11
  0.388500005      -5.87548135E-11
  0.388999999      -6.10307360E-11
  0.389499992      -6.33794128E-11
  0.389999986      -6.58037652E-11
  0.390500009      -6.83066936E-11
  0.391000003      -7.08911124E-11
  0.391499996      -7.35564387E-11
  0.391999990      -7.63085012E-11
  0.392500013      -7.91443716E-11
  0.393000007      -8.20693097E-11
  0.393500000      -8.50856330E-11
  0.393999994      -8.81945003E-11
  0.394499987      -9.13970913E-11
  0.395000011      -9.46962994E-11
  0.395500004      -9.80927145E-11
  0.395999998      -1.01586926E-10
  0.396499991      -1.05180080E-10
  0.397000015      -1.08877435E-10
  0.397500008      -1.12671407E-10
  0.398000002      -1.16568991E-10
  0.398499995      -1.20566696E-10
  0.398999989      -1.24661018E-10
  0.399500012      -1.28854302E-10
  0.400000006      -1.33143038E-10
  0.400500000      -1.37530737E-10
  0.400999993      -1.42008072E-10
  0.401499987      -1.46573878E-10
  0.402000010      -1.51222340E-10
  0.402500004      -1.55949975E-10
  0.402999997      -1.60750940E-10
  0.403499991      -1.65614772E-10
  0.404000014      -1.70539138E-10
  0.404500008      -1.75512410E-10
  0.405000001      -1.80525248E-10
  0.405499995      -1.85568366E-10
  0.405999988      -1.90627764E-10
  0.406500012      -1.95687175E-10
  0.407000005      -2.00737274E-10
  0.407499999      -2.05761755E-10
  0.407999992      -2.10735027E-10
  0.408499986      -2.15650067E-10
  0.409000009      -2.20472002E-10
  0.409500003      -2.25191477E-10
  0.409999996      -2.29771258E-10
  0.410499990      -2.34185726E-10
  0.411000013      -2.38406933E-10
  0.411500007      -2.42399989E-10
  0.412000000      -2.46141552E-10
  0.412499994      -2.49585130E-10
  0.412999988      -2.52698085E-10
  0.413500011      -2.55424515E-10
  0.414000005      -2.57731891E-10
  0.414499998      -2.59561928E-10
  0.414999992      -2.60861138E-10
  0.415499985      -2.61575928E-10
  0.416000009      -2.61638794E-10
  0.416500002      -2.60991506E-10
  0.416999996      -2.59559596E-10
  0.417499989      -2.57270871E-10
  0.418000013      -2.54032212E-10
  0.418500006      -2.49771426E-10
  0.419000000      -2.44397669E-10
  0.419499993      -2.37799253E-10
  0.419999987      -2.29873703E-10
  0.420500010      -2.20523211E-10
  0.421000004      -2.09617435E-10
  0.421499997      -1.97016639E-10
  0.421999991      -1.82604418E-10
  0.422500014      -1.66222452E-10
  0.423000008      -1.47731050E-10
  0.423500001      -1.26929953E-10
  0.423999995      -1.03674833E-10
  0.424499989      -7.77514719E-11
  0.425000012      -4.89782555E-11
  0.425500005      -1.71293518E-11
  0.425999999       1.80210933E-11
  0.426499993       5.67315153E-11
  0.426999986       9.92603569E-11
  0.427500010       1.45852108E-10
  0.428000003       1.96814079E-10