   0.00000000       1.63991433E-06
   5.00000024E-04   1.57935119E-06
   1.00000005E-03   1.35439313E-06
   1.50000001E-03   9.90700755E-07
   2.00000009E-03   5.26091469E-07
   2.49999994E-03   4.16797619E-09
   3.00000003E-03  -5.33610830E-07
   3.50000011E-03  -1.05589834E-06
   4.00000019E-03  -1.54826694E-06
   4.49999981E-03  -2.01772355E-06
   4.99999989E-03  -2.49398499E-06
   5.49999997E-03  -3.02698732E-06
   6.00000005E-03  -3.68044493E-06
   6.50000013E-03  -4.52181985E-06
   7.00000022E-03  -5.60953049E-06
   7.49999983E-03  -6.97863288E-06
   8.00000038E-03  -8.62657362E-06
   8.50000046E-03  -1.05007857E-05
   8.99999961E-03  -1.24898925E-05
   9.49999969E-03  -1.44200976E-05
   9.99999978E-03  -1.60580912E-05
   1.04999999E-02  -1.71210759E-05
   1.09999999E-02  -1.72940818E-05
   1.15000000E-02  -1.62538654E-05
   1.20000001E-02  -1.36981234E-05
   1.25000002E-02  -9.37788172E-06
   1.30000003E-02  -3.13052169E-06
   1.35000004E-02   5.08932408E-06
   1.40000004E-02   1.51843551E-05
   1.44999996E-02   2.68972472E-05
   1.49999997E-02   3.98040575E-05
   1.54999997E-02   5.33201746E-05
   1.60000008E-02   6.67197601E-05
   1.64999999E-02   7.91686471E-05
   1.70000009E-02   8.97695063E-05
   1.75000001E-02   9.76170995E-05
   1.79999992E-02   1.01860176E-04
   1.85000002E-02   1.01766091E-04
   1.89999994E-02   9.67835731E-05
   1.95000004E-02   8.65983820E-05
   1.99999996E-02   7.11778193E-05
   2.05000006E-02   5.07992481E-05
   2.09999997E-02   2.60598335E-05
   2.15000007E-02  -2.13487419E-06
   2.19999999E-02  -3.26041009E-05
   2.25000009E-02  -6.39460850E-05
   2.30000000E-02  -9.46101500E-05
   2.34999992E-02  -1.22984056E-04
   2.40000002E-02  -1.47489816E-04
   2.44999994E-02  -1.66682963E-04
   2.50000004E-02  -1.79348193E-04
   2.54999995E-02  -1.84584089E-04
   2.60000005E-02  -1.81871612E-04
   2.64999997E-02  -1.71119696E-04
   2.70000007E-02  -1.52685228E-04
   2.74999999E-02  -1.27363237E-04
   2.80000009E-02  -9.63487473E-05
   2.85000000E-02  -6.11707292E-05
   2.89999992E-02  -2.36019769E-05
   2.95000002E-02   1.44494315E-05
   2.99999993E-02   5.10601603E-05
   3.05000003E-02   8.44149981E-05
   3.09999995E-02   1.12925685E-04
   3.15000005E-02   1.35336217E-04
   3.20000015E-02   1.50806634E-04
   3.24999988E-02   1.58969517E-04
   3.29999998E-02   1.59955438E-04
   3.35000008E-02   1.54381865E-04
   3.40000018E-02   1.43309793E-04
   3.44999991E-02   1.28166314E-04
   3.50000001E-02   1.10641959E-04
   3.55000012E-02   9.25660861E-05
   3.59999985E-02   7.57716625E-05
   3.64999995E-02   6.19566563E-05
   3.70000005E-02   5.25560135E-05
   3.75000015E-02   4.86275203E-05
   3.79999988E-02   5.07665136E-05
   3.84999998E-02   5.90534764E-05
   3.90000008E-02   7.30364627E-05
   3.95000018E-02   9.17579891E-05
   3.99999991E-02   1.13815993E-04
   4.05000001E-02   1.37464071E-04
   4.10000011E-02   1.60737662E-04
   4.14999984E-02   1.81601659E-04
   4.19999994E-02   1.98108915E-04
   4.25000004E-02   2.08555139E-04
   4.30000015E-02   2.11623599E-04
   4.34999987E-02   2.06502940E-04
   4.39999998E-02   1.92976368E-04
   4.45000008E-02   1.71467589E-04
   4.50000018E-02   1.43039695E-04
   4.54999991E-02   1.09353961E-04
   4.60000001E-02   7.25770078E-05
   4.65000011E-02   3.52545721E-05
   4.69999984E-02   1.50413612E-07
   4.74999994E-02  -2.99373969E-05
   4.80000004E-02  -5.23608542E-05
   4.85000014E-02  -6.48162822E-05
   4.89999987E-02  -6.55045587E-05
   4.94999997E-02  -5.32731792E-05
   5.00000007E-02  -2.77169402E-05
   5.05000018E-02   1.07758115E-05
   5.09999990E-02   6.10214847E-05
   5.15000001E-02   1.21097859E-04
   5.20000011E-02   1.88456339E-04
   5.24999984E-02   2.60065979E-04
   5.29999994E-02   3.32610856E-04
   5.35000004E-02   4.02692414E-04
   5.40000014E-02   4.67058620E-04
   5.44999987E-02   5.22817660E-04
   5.49999997E-02   5.67635288E-04
   5.55000007E-02   5.99902880E-04
   5.60000017E-02   6.18850056E-04
   5.64999990E-02   6.24618144E-04
   5.70000000E-02   6.18263963E-04
   5.75000010E-02   6.01709646E-04
   5.79999983E-02   5.77633036E-04
   5.84999993E-02   5.49307908E-04
   5.90000004E-02   5.20411937E-04
   5.95000014E-02   4.94785781E-04
   5.99999987E-02   4.76215209E-04
   6.04999997E-02   4.68177372E-04
   6.10000007E-02   4.73632535E-04
   6.15000017E-02   4.94838168E-04
   6.19999990E-02   5.33219834E-04
   6.25000000E-02   5.89271309E-04
   6.30000010E-02   6.62560924E-04
   6.35000020E-02   7.51733431E-04
   6.40000030E-02   8.54639162E-04
   6.44999966E-02   9.68487700E-04
   6.49999976E-02   1.08999701E-03
   6.54999986E-02   1.21567619E-03
   6.59999996E-02   1.34203711E-03
   6.65000007E-02   1.46581035E-03
   6.70000017E-02   1.58419216E-03
   6.75000027E-02   1.69502571E-03
   6.80000037E-02   1.79693964E-03
   6.84999973E-02   1.88941683E-03
   6.89999983E-02   1.97290932E-03
   6.94999993E-02   2.04869499E-03
   7.00000003E-02   2.11886200E-03
   7.05000013E-02   2.18617520E-03
   7.10000023E-02   2.25385837E-03
   7.15000033E-02   2.32543214E-03
   7.19999969E-02   2.40445253E-03
   7.24999979E-02   2.49431375E-03
   7.29999989E-02   2.59805610E-03
   7.34999999E-02   2.71816971E-03
   7.40000010E-02   2.85645877E-03
   7.45000020E-02   3.01398430E-03
   7.50000030E-02   3.19101033E-03
   7.54999965E-02   3.38707049E-03
   7.59999976E-02   3.60098411E-03
   7.64999986E-02   3.83104058E-03
   7.69999996E-02   4.07514395E-03
   7.75000006E-02   4.33104252E-03
   7.80000016E-02   4.59641172E-03
   7.85000026E-02   4.86920122E-03
   7.90000036E-02   5.14769321E-03
   7.94999972E-02   5.43074310E-03
   7.99999982E-02   5.71780419E-03
   8.04999992E-02   6.00913446E-03
   8.10000002E-02   6.30560704E-03
   8.15000013E-02   6.60889316E-03
   8.20000023E-02   6.92128064E-03
   8.25000033E-02   7.24543724E-03
   8.29999968E-02   7.58452388E-03
   8.34999979E-02   7.94179738E-03
   8.39999989E-02   8.32061656E-03
   8.44999999E-02   8.72403476E-03
   8.50000009E-02   9.15486086E-03
   8.55000019E-02   9.61555447E-03
   8.60000029E-02   1.01079270E-02
   8.64999965E-02   1.06334100E-02
   8.69999975E-02   1.11925481E-02
   8.74999985E-02   1.17856152E-02
   8.79999995E-02   1.24124838E-02
   8.85000005E-02   1.30726192E-02
   8.90000015E-02   1.37652569E-02
   8.95000026E-02   1.44897448E-02
   9.00000036E-02   1.52454786E-02
   9.04999971E-02   1.60321500E-02
   9.09999982E-02   1.68497469E-02
   9.14999992E-02   1.76988039E-02
   9.20000002E-02   1.85803790E-02
   9.25000012E-02   1.94961317E-02
   9.30000022E-02   2.04480588E-02
   9.35000032E-02   2.14387551E-02
   9.39999968E-02   2.24712137E-02
   9.44999978E-02   2.35486273E-02
   9.49999988E-02   2.46742424E-02
   9.54999998E-02   2.58517638E-02
   9.60000008E-02   2.70841233E-02
   9.65000018E-02   2.83746924E-02
   9.70000029E-02   2.97263563E-02
   9.74999964E-02   3.11413798E-02
   9.79999974E-02   3.26221064E-02
   9.84999985E-02   3.41705084E-02
   9.89999995E-02   3.57883796E-02
   9.95000005E-02   3.74773070E-02
  0.100000001       3.92390341E-02
  0.100500003       4.10755947E-02
  0.101000004       4.29886058E-02
  0.101499997       4.49805483E-02
  0.101999998       4.70544212E-02
  0.102499999       4.92136702E-02
  0.103000000       5.14621995E-02
  0.103500001       5.38041927E-02
  0.104000002       5.62454350E-02
  0.104500003       5.87910898E-02
  0.104999997       6.14466257E-02
  0.105499998       6.42181635E-02
  0.105999999       6.71120584E-02
  0.106500000       7.01337010E-02
  0.107000001       7.32895583E-02
  0.107500002       7.65843019E-02
  0.108000003       8.00233409E-02
  0.108499996       8.36105868E-02
  0.108999997       8.73506740E-02
  0.109499998       9.12471116E-02
  0.109999999       9.53028873E-02
  0.110500000       9.95214731E-02
  0.111000001      0.103905626    
  0.111500002      0.108459055    
  0.112000003      0.113184690    
  0.112499997      0.118087679    
  0.112999998      0.123171888    
  0.113499999      0.128443629    
  0.114000000      0.133909136    
  0.114500001      0.139576271    
  0.115000002      0.145454824    
  0.115500003      0.151553065    
  0.115999997      0.157881498    
  0.116499998      0.164453372    
  0.116999999      0.171277851    
  0.117500000      0.178369731    
  0.118000001      0.185739845    
  0.118500002      0.193399355    
  0.119000003      0.201359600    
  0.119499996      0.209634438    
  0.119999997      0.218231186    
  0.120499998      0.227160484    
  0.120999999      0.236431524    
  0.121500000      0.246051714    
  0.122000001      0.256029993    
  0.122500002      0.266371876    
  0.123000003      0.277085125    
  0.123499997      0.288177431    
  0.123999998      0.299655229    
  0.124499999      0.311529040    
  0.125000000      0.323807836    
  0.125499994      0.336504191    
  0.126000002      0.349626303    
  0.126499996      0.363190413    
  0.127000004      0.377205223    
  0.127499998      0.391692668    
  0.128000006      0.406669110    
  0.128500000      0.422151715    
  0.128999993      0.438159257    
  0.129500002      0.454710215    
  0.129999995      0.471829683    
  0.130500004      0.489533871    
  0.130999997      0.507840216    
  0.131500006      0.526772439    
  0.131999999      0.546342194    
  0.132499993      0.566571593    
  0.133000001      0.587477624    
  0.133499995      0.609074414    
  0.134000003      0.631378531    
  0.134499997      0.654402375    
  0.135000005      0.678160489    
  0.135499999      0.702662885    
  0.136000007      0.727928162    
  0.136500001      0.753964126    
  0.136999995      0.780786693    
  0.137500003      0.808413029    
  0.137999997      0.836867392    
  0.138500005      0.866163850    
  0.138999999      0.896319628    
  0.139500007      0.927362740    
  0.140000001      0.959313214    
  0.140499994      0.992190897    
  0.141000003       1.02602875    
  0.141499996       1.06084263    
  0.142000005       1.09667563    
  0.142499998       1.13353503    
  0.143000007       1.17146266    
  0.143500000       1.21047688    
  0.143999994       1.25060511    
  0.144500002       1.29188025    
  0.144999996       1.33431768    
  0.145500004       1.37794960    
  0.145999998       1.42276669    
  0.146500006       1.46881151    
  0.147000000       1.51609850    
  0.147499993       1.56464386    
  0.148000002       1.61446524    
  0.148499995       1.66560364    
  0.149000004       1.71804440    
  0.149499997       1.77182150    
  0.150000006       1.82694888    
  0.150500000       1.88343692    
  0.150999993       1.94133162    
  0.151500002       2.00062919    
  0.151999995       2.06135726    
  0.152500004       2.12355518    
  0.152999997       2.18722105    
  0.153500006       2.25238657    
  0.153999999       2.31909084    
  0.154499993       2.38734508    
  0.155000001       2.45716310    
  0.155499995       2.52858329    
  0.156000003       2.60159969    
  0.156499997       2.67625546    
  0.157000005       2.75257826    
  0.157499999       2.83056211    
  0.158000007       2.91022277    
  0.158500001       2.99158454    
  0.158999994       3.07466173    
  0.159500003       3.15946126    
  0.159999996       3.24600649    
  0.160500005       3.33428931    
  0.160999998       3.42428231    
  0.161500007       3.51603508    
  0.162000000       3.60955715    
  0.162499994       3.70477676    
  0.163000003       3.80180430    
  0.163499996       3.90057540    
  0.164000005       4.00111294    
  0.164499998       4.10339403    
  0.165000007       4.20744991    
  0.165500000       4.31324863    
  0.165999994       4.42083645    
  0.166500002       4.53013420    
  0.166999996       4.64116907    
  0.167500004       4.75395584    
  0.167999998       4.86848259    
  0.168500006       4.98476171    
  0.169000000       5.10269976    
  0.169499993       5.22235060    
  0.170000002       5.34364319    
  0.170499995       5.46654606    
  0.171000004       5.59107780    
  0.171499997       5.71726894    
  0.172000006       5.84489393    
  0.172499999       5.97411871    
  0.172999993       6.10475111    
  0.173500001       6.23691225    
  0.173999995       6.37039804    
  0.174500003       6.50530100    
  0.174999997       6.64142609    
  0.175500005       6.77879381    
  0.175999999       6.91728401    
  0.176499993       7.05685997    
  0.177000001       7.19748354    
  0.177499995       7.33909273    
  0.178000003       7.48150826    
  0.178499997       7.62481451    
  0.179000005       7.76894808    
  0.179499999       7.91367531    
  0.180000007       8.05906677    
  0.180500001       8.20490837    
  0.180999994       8.35128784    
  0.181500003       8.49794579    
  0.181999996       8.64492702    
  0.182500005       8.79211330    
  0.182999998       8.93917847    
  0.183500007       9.08636665    
  0.184000000       9.23318672    
  0.184499994       9.37980652    
  0.185000002       9.52600098    
  0.185499996       9.67142868    
  0.186000004       9.81624413    
  0.186499998       9.96002197    
  0.187000006       10.1028576    
  0.187500000       10.2443695    
  0.187999994       10.3844004    
  0.188500002       10.5228605    
  0.188999996       10.6597052    
  0.189500004       10.7946997    
  0.189999998       10.9275188    
  0.190500006       11.0580940    
  0.191000000       11.1863909    
  0.191499993       11.3118458    
  0.192000002       11.4344854    
  0.192499995       11.5540552    
  0.193000004       11.6705379    
  0.193499997       11.7834072    
  0.194000006       11.8926811    
  0.194499999       11.9981260    
  0.194999993       12.0995922    
  0.195500001       12.1968670    
  0.195999995       12.2895536    
  0.196500003       12.3775396    
  0.196999997       12.4604073    
  0.197500005       12.5380468    
  0.197999999       12.6100121    
  0.198500007       12.6765051    
  0.199000001       12.7367582    
  0.199499995       12.7908802    
  0.200000003       12.8380404    
  0.200499997       12.8786087    
  0.201000005       12.9117279    
  0.201499999       12.9376459    
  0.202000007       12.9555225    
  0.202500001       12.9652891    
  0.202999994       12.9664345    
  0.203500003       12.9592075    
  0.203999996       12.9429646    
  0.204500005       12.9175158    
  0.204999998       12.8823576    
  0.205500007       12.8372297    
  0.206000000       12.7818508    
  0.206499994       12.7157736    
  0.207000002       12.6392431    
  0.207499996       12.5519371    
  0.208000004       12.4528809    
  0.208499998       12.3425913    
  0.209000006       12.2204647    
  0.209500000       12.0861473    
  0.209999993       11.9389439    
  0.210500002       11.7792473    
  0.210999995       11.6061058    
  0.211500004       11.4201946    
  0.211999997       11.2204790    
  0.212500006       11.0061636    
  0.213000000       10.7776136    
  0.213499993       10.5345230    
  0.214000002       10.2767878    
  0.214499995       10.0033188    
  0.215000004       9.71349621    
  0.215499997       9.40795994    
  0.216000006       9.08609295    
  0.216499999       8.74784565    
  0.216999993       8.39288044    
  0.217500001       8.02069664    
  0.217999995       7.63156223    
  0.218500003       7.22490740    
  0.218999997       6.80106449    
  0.219500005       6.35957241    
  0.219999999       5.90009594    
  0.220500007       5.42313099    
  0.221000001       4.92765093    
  0.221499994       4.41428900    
  0.222000003       3.88190842    
  0.222499996       3.33116841    
  0.223000005       2.76163507    
  0.223499998       2.17271543    
  0.224000007       1.56530356    
  0.224500000      0.938771129    
  0.224999994      0.293106169    
  0.225500003     -0.372176230    
  0.225999996      -1.05680144    
  0.226500005      -1.76064789    
  0.226999998      -2.48389602    
  0.227500007      -3.22758174    
  0.228000000      -3.99034142    
  0.228499994      -4.77306890    
  0.229000002      -5.57462215    
  0.229499996      -6.39587736    
  0.230000004      -7.23599529    
  0.230499998      -8.09549999    
  0.231000006      -8.97354889    
  0.231500000      -9.87030697    
  0.231999993      -10.7852297    
  0.232500002      -11.7182446    
  0.232999995      -12.6684608    
  0.233500004      -13.6365786    
  0.233999997      -14.6222715    
  0.234500006      -15.6236944    
  0.234999999      -16.6422844    
  0.235499993      -17.6769524    
  0.236000001      -18.7271709    
  0.236499995      -19.7927074    
  0.237000003      -20.8728714    
  0.237499997      -21.9668903    
  0.238000005      -23.0753174    
  0.238499999      -24.1971664    
  0.238999993      -25.3315468    
  0.239500001      -26.4785938    
  0.239999995      -27.6372738    
  0.240500003      -28.8079967    
  0.240999997      -29.9894905    
  0.241500005      -31.1803303    
  0.241999999      -32.3810349    
  0.242500007      -33.5893326    
  0.243000001      -34.8054581    
  0.243499994      -36.0274582    
  0.244000003      -37.2554588    
  0.244499996      -38.4892502    
  0.245000005      -39.7266846    
  0.245499998      -40.9671440    
  0.246000007      -42.2102852    
  0.246500000      -43.4536209    
  0.246999994      -44.6970558    
  0.247500002      -45.9394798    
  0.247999996      -47.1802406    
  0.248500004      -48.4179001    
  0.248999998      -49.6511574    
  0.249500006      -50.8799934    
  0.250000000      -52.1027489    
  0.250499994      -53.3185921    
  0.250999987      -54.5255280    
  0.251500010      -55.7231674    
  0.252000004      -56.9100189    
  0.252499998      -58.0842552    
  0.252999991      -59.2450333    
  0.253500015      -60.3910675    
  0.254000008      -61.5208321    
  0.254500002      -62.6332932    
  0.254999995      -63.7265015    
  0.255499989      -64.8003311    
  0.256000012      -65.8519821    
  0.256500006      -66.8818817    
  0.256999999      -67.8868408    
  0.257499993      -68.8658295    
  0.257999986      -69.8182831    
  0.258500010      -70.7417297    
  0.259000003      -71.6362381    
  0.259499997      -72.4992294    
  0.259999990      -73.3303375    
  0.260500014      -74.1269150    
  0.261000007      -74.8896255    
  0.261500001      -75.6144028    
  0.261999995      -76.3027420    
  0.262499988      -76.9508514    
  0.263000011      -77.5598526    
  0.263500005      -78.1257248    
  0.263999999      -78.6494751    
  0.264499992      -79.1288605    
  0.264999986      -79.5620346    
  0.265500009      -79.9477615    
  0.266000003      -80.2861176    
  0.266499996      -80.5735550    
  0.266999990      -80.8098831    
  0.267500013      -80.9940033    
  0.268000007      -81.1252823    
  0.268500000      -81.2016602    
  0.268999994      -81.2223969    
  0.269499987      -81.1866684    
  0.270000011      -81.0926514    
  0.270500004      -80.9400406    
  0.270999998      -80.7278900    
  0.271499991      -80.4554214    
  0.272000015      -80.1217422    
  0.272500008      -79.7253571    
  0.273000002      -79.2662964    
  0.273499995      -78.7443924    
  0.273999989      -78.1577759    
  0.274500012      -77.5060501    
  0.275000006      -76.7882385    
  0.275500000      -76.0044403    
  0.275999993      -75.1539154    
  0.276499987      -74.2359085    
  0.277000010      -73.2504196    
  0.277500004      -72.1964264    
  0.277999997      -71.0745544    
  0.278499991      -69.8835754    
  0.279000014      -68.6237488    
  0.279500008      -67.2946396    
  0.280000001      -65.8965836    
  0.280499995      -64.4289780    
  0.280999988      -62.8923950    
  0.281500012      -61.2870789    
  0.282000005      -59.6133194    
  0.282499999      -57.8713913    
  0.282999992      -56.0611572    
  0.283499986      -54.1845932    
  0.284000009      -52.2416420    
  0.284500003      -50.2330093    
  0.284999996      -48.1597862    
  0.285499990      -46.0225601    
  0.286000013      -43.8216209    
  0.286500007      -41.5587845    
  0.287000000      -39.2346802    
  0.287499994      -36.8507576    
  0.287999988      -34.4078789    
  0.288500011      -31.9071712    
  0.289000005      -29.3503017    
  0.289499998      -26.7382507    
  0.289999992      -24.0721378    
  0.290499985      -21.3535957    
  0.291000009      -18.5842075    
  0.291500002      -15.7654200    
  0.291999996      -12.8985777    
  0.292499989      -9.98545361    
  0.293000013      -7.02712059    
  0.293500006      -4.02750683    
  0.294000000     -0.986296237    
  0.294499993       2.09365225    
  0.294999987       5.20805740    
  0.295500010       8.35574150    
  0.296000004       11.5350533    
  0.296499997       14.7435360    
  0.296999991       17.9781609    
  0.297500014       21.2363930    
  0.298000008       24.5165024    
  0.298500001       27.8162460    
  0.298999995       31.1325665    
  0.299499989       34.4621162    
  0.300000012       37.8040581    
  0.300500005       41.1545944    
  0.300999999       44.5108871    
  0.301499993       47.8692780    
  0.301999986       51.2265358    
  0.302500010       54.5822105    
  0.303000003       57.9321518    
  0.303499997       61.2733192    
  0.303999990       64.6044312    
  0.304500014       67.9203796    
  0.305000007       71.2193298    
  0.305500001       74.4999313    
  0.305999994       77.7540970    
  0.306499988       80.9829636    
  0.307000011       84.1822891    
  0.307500005       87.3477554    
  0.307999998       90.4807205    
  0.308499992       93.5729446    
  0.308999985       96.6251602    
  0.309500009       99.6335144    
  0.310000002       102.595131    
  0.310499996       105.506622    
  0.310999990       108.363747    
  0.311500013       111.167191    
  0.312000006       113.912178    
  0.312500000       116.596619    
  0.312999994       119.216103    
  0.313499987       121.768967    
  0.314000010       124.251686    
  0.314500004       126.660866    
  0.314999998       128.995819    
  0.315499991       131.251465    
  0.316000015       133.427841    
  0.316500008       135.521378    
  0.317000002       137.529022    
  0.317499995       139.448761    
  0.317999989       141.280411    
  0.318500012       143.017502    
  0.319000006       144.661530    
  0.319499999       146.207916    
  0.319999993       147.657959    
  0.320499986       149.008301    
  0.321000010       150.258179    
  0.321500003       151.402985    
  0.321999997       152.447205    
  0.322499990       153.384460    
  0.323000014       154.215805    
  0.323500007       154.941772    
  0.324000001       155.559830    
  0.324499995       156.066345    
  0.324999988       156.462250    
  0.325500011       156.750534    
  0.326000005       156.925735    
  0.326499999       156.987061    
  0.326999992       156.935715    
  0.327499986       156.770798    
  0.328000009       156.488831    
  0.328500003       156.089600    
  0.328999996       155.575806    
  0.329499990       154.941956    
  0.330000013       154.191849    
  0.330500007       153.324432    
  0.331000000       152.342621    
  0.331499994       151.243652    
  0.331999987       150.030106    
  0.332500011       148.704880    
  0.333000004       147.266449    
  0.333499998       145.716446    
  0.333999991       144.058578    
  0.334500015       142.291824    
  0.335000008       140.421799    
  0.335500002       138.447922    
  0.335999995       136.370407    
  0.336499989       134.194077    
  0.337000012       131.918228    
  0.337500006       129.547379    
  0.338000000       127.079407    
  0.338499993       124.520058    
  0.338999987       121.868767    
  0.339500010       119.125694    
  0.340000004       116.297195    
  0.340499997       113.380081    
  0.340999991       110.377045    
  0.341500014       107.293884    
  0.342000008       104.127747    
  0.342500001       100.883240    
  0.342999995       97.5624237    
  0.343499988       94.1703873    
  0.344000012       90.7075729    
  0.344500005       87.1800766    
  0.344999999       83.5908203    
  0.345499992       79.9437027    
  0.345999986       76.2415466    
  0.346500009       72.4905624    
  0.347000003       68.6931152    
  0.347499996       64.8543549    
  0.347999990       60.9779663    
  0.348500013       57.0667076    
  0.349000007       53.1239281    
  0.349500000       49.1544037    
  0.349999994       45.1599312    
  0.350499988       41.1439896    
  0.351000011       37.1084366    
  0.351500005       33.0576935    
  0.351999998       28.9952641    
  0.352499992       24.9216137    
  0.352999985       20.8410454    
  0.353500009       16.7560978    
  0.354000002       12.6711340    
  0.354499996       8.58895588    
  0.354999989       4.51268816    
  0.355500013      0.446219385    
  0.356000006      -3.60698938    
  0.356500000      -7.64204836    
  0.356999993      -11.6558151    
  0.357499987      -15.6433620    
  0.358000010      -19.6010265    
  0.358500004      -23.5255718    
  0.358999997      -27.4112682    
  0.359499991      -31.2555504    
  0.360000014      -35.0545959    
  0.360500008      -38.8052483    
  0.361000001      -42.5037308    
  0.361499995      -46.1475983    
  0.361999989      -49.7342834    
  0.362500012      -53.2611275    
  0.363000005      -56.7261543    
  0.363499999      -60.1268082    
  0.363999993      -63.4609680    
  0.364499986      -66.7267532    
  0.365000010      -69.9231033    
  0.365500003      -73.0472794    
  0.365999997      -76.0981903    
  0.366499990      -79.0736694    
  0.367000014      -81.9708557    
  0.367500007      -84.7887268    
  0.368000001      -87.5245743    
  0.368499994      -90.1759186    
  0.368999988      -92.7411575    
  0.369500011      -95.2173920    
  0.370000005      -97.6032410    
  0.370499998      -99.8973999    
  0.370999992      -102.094994    
  0.371499985      -104.196098    
  0.372000009      -106.198730    
  0.372500002      -108.102837    
  0.372999996      -109.905884    
  0.373499990      -111.608841    
  0.374000013      -113.210037    
  0.374500006      -114.710373    
  0.375000000      -116.107910    
  0.375499994      -117.403740    
  0.375999987      -118.598518    
  0.376500010      -119.691696    
  0.377000004      -120.684746    
  0.377499998      -121.576195    
  0.377999991      -122.369400    
  0.378500015      -123.063255    
  0.379000008      -123.656876    
  0.379500002      -124.152916    
  0.379999995      -124.549446    
  0.380499989      -124.849075    
  0.381000012      -125.050049    
  0.381500006      -125.154221    
  0.381999999      -125.161087    
  0.382499993      -125.071426    
  0.382999986      -124.886581    
  0.383500010      -124.605537    
  0.384000003      -124.230942    
  0.384499997      -123.762749    
  0.384999990      -123.201996    
  0.385500014      -122.553474    
  0.386000007      -121.815903    
  0.386500001      -120.991089    
  0.386999995      -120.083328    
  0.387499988      -119.093620    
  0.388000011      -118.024429    
  0.388500005      -116.877213    
  0.388999999      -115.655670    
  0.389499992      -114.362183    
  0.389999986      -112.997948    
  0.390500009      -111.565216    
  0.391000003      -110.067421    
  0.391499996      -108.504906    
  0.391999990      -106.880920    
  0.392500013      -105.196747    
  0.393000007      -103.455116    
  0.393500000      -101.656914    
  0.393999994      -99.8048630    
  0.394499987      -97.9003448    
  0.395000011      -95.9452286    
  0.395500004      -93.9428024    
  0.395999998      -91.8944702    
  0.396499991      -89.8005295    
  0.397000015      -87.6657410    
  0.397500008      -85.4923172    
  0.398000002      -83.2825394    
  0.398499995      -81.0377197    
  0.398999989      -78.7626877    
  0.399500012      -76.4592667    
  0.400000006      -74.1299896    
  0.400500000      -71.7796631    
  0.400999993      -69.4090805    
  0.401499987      -67.0224380    
  0.402000010      -64.6212311    
  0.402500004      -62.2088242    
  0.402999997      -59.7893944    
  0.403499991      -57.3616104    
  0.404000014      -54.9310341    
  0.404500008      -52.4983673    
  0.405000001      -50.0659943    
  0.405499995      -47.6353912    
  0.405999988      -45.2098541    
  0.406500012      -42.7893753    
  0.407000005      -40.3759537    
  0.407499999      -37.9700089    
  0.407999992      -35.5756950    
  0.408499986      -33.1931381    
  0.409000009      -30.8253975    
  0.409500003      -28.4701958    
  0.409999996      -26.1340141    
  0.410499990      -23.8165989    
  0.411000013      -21.5192738    
  0.411500007      -19.2448788    
  0.412000000      -16.9949493    
  0.412499994      -14.7711287    
  0.412999988      -12.5755634    
  0.413500011      -10.4107094    
  0.414000005      -8.27757359    
  0.414499998      -6.17896318    
  0.414999992      -4.11502218    
  0.415499985      -2.08824492    
  0.416000009      -9.92334709E-02
  0.416500002       1.84968090    
  0.416999996       3.75823426    
  0.417499989       5.62494469    
  0.418000013       7.45083237    
  0.418500006       9.23379421    
  0.419000000       10.9725885    
  0.419499993       12.6680498    
  0.419999987       14.3196440    
  0.420500010       15.9263735    
  0.421000004       17.4886684    
  0.421499997       19.0056801    
  0.421999991       20.4775562    
  0.422500014       21.9035091    
  0.423000008       23.2837257    
  0.423500001       24.6171398    
  0.423999995       25.9037266    
  0.424499989       27.1424103    
  0.425000012       28.3337021    
  0.425500005       29.4762268    
  0.425999999       30.5701866    
  0.426499993       31.6150303    
  0.426999986       32.6103630    
  0.427500010       33.5559883    
  0.428000003       34.4516373    