   0.00000000       0.00000000    
   5.00000024E-04   4.64218436E-03
   1.00000005E-03   1.31972423E-02
   1.50000001E-03   2.39693131E-02
   2.00000009E-03   3.45169231E-02
   2.49999994E-03   4.19879295E-02
   3.00000003E-03   4.35352214E-02
   3.50000011E-03   3.67676467E-02
   4.00000019E-03   2.01852191E-02
   4.49999981E-03  -6.45298185E-03
   4.99999989E-03  -4.18758169E-02
   5.49999997E-03  -8.31998289E-02
   6.00000005E-03 -0.126006991    
   6.50000013E-03 -0.164608791    
   7.00000022E-03 -0.192487732    
   7.49999983E-03 -0.202888429    
   8.00000038E-03 -0.189514890    
   8.50000046E-03 -0.147275940    
   8.99999961E-03  -7.30126128E-02
   9.49999969E-03   3.38636748E-02
   9.99999978E-03  0.170890138    
   1.04999999E-02  0.332289100    
   1.09999999E-02  0.508969307    
   1.15000000E-02  0.688817561    
   1.20000001E-02  0.857289195    
   1.25000002E-02  0.998274803    
   1.30000003E-02   1.09520233    
   1.35000004E-02   1.13230753    
   1.40000004E-02   1.09598935    
   1.44999996E-02  0.976148486    
   1.49999997E-02  0.767409623    
   1.54999997E-02  0.470118940    
   1.60000008E-02   9.10237879E-02
   1.64999999E-02 -0.356443524    
   1.70000009E-02 -0.852331817    
   1.75000001E-02  -1.37081921    
   1.79999992E-02  -1.88132346    
   1.85000002E-02  -2.35004997    
   1.89999994E-02  -2.74189091    
   1.95000004E-02  -3.02257919    
   1.99999996E-02  -3.16096449    
   2.05000006E-02  -3.13127398    
   2.09999997E-02  -2.91520166    
   2.15000007E-02  -2.50367641    
   2.19999999E-02  -1.89817917    
   2.25000009E-02  -1.11148858    
   2.30000000E-02 -0.167779058    
   2.34999992E-02  0.897969902    
   2.40000002E-02   2.04127216    
   2.44999994E-02   3.21006823    
   2.50000004E-02   4.34722948    
   2.54999995E-02   5.39349651    
   2.60000005E-02   6.29070139    
   2.64999997E-02   6.98507595    
   2.70000007E-02   7.43045759    
   2.74999999E-02   7.59120417    
   2.80000009E-02   7.44462013    
   2.85000000E-02   6.98273420    
   2.89999992E-02   6.21329975    
   2.95000002E-02   5.15995407    
   2.99999993E-02   3.86147356    
   3.05000003E-02   2.37015033    
   3.09999995E-02  0.749377370    
   3.15000005E-02 -0.929442704    
   3.20000015E-02  -2.59052491    
   3.24999988E-02  -4.15762663    
   3.29999998E-02  -5.55809212    
   3.35000008E-02  -6.72673702    
   3.40000018E-02  -7.60941505    
   3.44999991E-02  -8.16597080    
   3.50000001E-02  -8.37250614    
   3.55000012E-02  -8.22273064    
   3.59999985E-02  -7.72837543    
   3.64999995E-02  -6.91860104    
   3.70000005E-02  -5.83846903    
   3.75000015E-02  -4.54652214    
   3.79999988E-02  -3.11163545    
   3.84999998E-02  -1.60928750    
   3.90000008E-02 -0.117528670    
   3.95000018E-02   1.28722000    
   3.99999991E-02   2.53421783    
   4.05000001E-02   3.56209612    
   4.10000011E-02   4.32202721    
   4.14999984E-02   4.78013372    
   4.19999994E-02   4.91905069    
   4.25000004E-02   4.73852539    
   4.30000015E-02   4.25512171    
   4.34999987E-02   3.50089908    
   4.39999998E-02   2.52134609    
   4.45000008E-02   1.37254655    
   4.50000018E-02  0.117830530    
   4.54999991E-02  -1.17590177    
   4.60000001E-02  -2.44196582    
   4.65000011E-02  -3.61758876    
   4.69999984E-02  -4.64728069    
   4.74999994E-02  -5.48567867    
   4.80000004E-02  -6.09984589    
   4.85000014E-02  -6.47060680    
   4.89999987E-02  -6.59330034    
   4.94999997E-02  -6.47744417    
   5.00000007E-02  -6.14586258    
   5.05000018E-02  -5.63281679    
   5.09999990E-02  -4.98178339    
   5.15000001E-02  -4.24267101    
   5.20000011E-02  -3.46875119    
   5.24999984E-02  -2.71364069    
   5.29999994E-02  -2.02822280    
   5.35000004E-02  -1.45803845    
   5.40000014E-02  -1.04101837    
   5.44999987E-02 -0.805635393    
   5.49999997E-02 -0.770076871    
   5.55000007E-02 -0.941647232    
   5.60000017E-02  -1.31710088    
   5.64999990E-02  -1.88365948    
   5.70000000E-02  -2.62035370    
   5.75000010E-02  -3.49997592    
   5.79999983E-02  -4.49136353    
   5.84999993E-02  -5.56157255    
   5.90000004E-02  -6.67868185    
   5.95000014E-02  -7.81355429    
   5.99999987E-02  -8.94207001    
   6.04999997E-02  -10.0467129    
   6.10000007E-02  -11.1176643    
   6.15000017E-02  -12.1534290    
   6.19999990E-02  -13.1607819    
   6.25000000E-02  -14.1544247    
   6.30000010E-02  -15.1558990    
   6.35000020E-02  -16.1926670    
   6.40000030E-02  -17.2958527    
   6.44999966E-02  -18.4988995    
   6.49999976E-02  -19.8355446    
   6.54999986E-02  -21.3379593    
   6.59999996E-02  -23.0350494    
   6.65000007E-02  -24.9512787    
   6.70000017E-02  -27.1052189    
   6.75000027E-02  -29.5095482    
   6.80000037E-02  -32.1701050    
   6.84999973E-02  -35.0869064    
   6.89999983E-02  -38.2542191    
   6.94999993E-02  -41.6618958    
   7.00000003E-02  -45.2964516    
   7.05000013E-02  -49.1428108    
   7.10000023E-02  -53.1862488    
   7.15000033E-02  -57.4132843    
   7.19999969E-02  -61.8141327    
   7.24999979E-02  -66.3835297    
   7.29999989E-02  -71.1223907    
   7.34999999E-02  -76.0386353    
   7.40000010E-02  -81.1472015    
   7.45000020E-02  -86.4713821    
   7.50000030E-02  -92.0417023    
   7.54999965E-02  -97.8959579    
   7.59999976E-02  -104.078148    
   7.64999986E-02  -110.638046    
   7.69999996E-02  -117.629387    
   7.75000006E-02  -125.108253    
   7.80000016E-02  -133.134369    
   7.85000026E-02  -141.765381    
   7.90000036E-02  -151.060287    
   7.94999972E-02  -161.076172    
   7.99999982E-02  -171.866455    
   8.04999992E-02  -183.482971    
   8.10000002E-02  -195.975204    
   8.15000013E-02  -209.388382    
   8.20000023E-02  -223.765762    
   8.25000033E-02  -239.149216    
   8.29999968E-02  -255.578720    
   8.34999979E-02  -273.093781    
   8.39999989E-02  -291.735626    
   8.44999999E-02  -311.545807    
   8.50000009E-02  -332.570526    
   8.55000019E-02  -354.858429    
   8.60000029E-02  -378.464081    
   8.64999965E-02  -403.446442    
   8.69999975E-02  -429.871674    
   8.74999985E-02  -457.813232    
   8.79999995E-02  -487.350494    
   8.85000005E-02  -518.571106    
   8.90000015E-02  -551.569946    
   8.95000026E-02  -586.448608    
   9.00000036E-02  -623.316528    
   9.04999971E-02  -662.290527    
   9.09999982E-02  -703.493469    
   9.14999992E-02  -747.053833    
   9.20000002E-02  -793.106934    
   9.25000012E-02  -841.798401    
   9.30000022E-02  -893.273804    
   9.35000032E-02  -947.688599    
   9.39999968E-02  -1005.20209    
   9.44999978E-02  -1065.98376    
   9.49999988E-02  -1130.20959    
   9.54999998E-02  -1198.05945    
   9.60000008E-02  -1269.72742    
   9.65000018E-02  -1345.41138    
   9.70000029E-02  -1425.32385    
   9.74999964E-02  -1509.68298    
   9.79999974E-02  -1598.72217    
   9.84999985E-02  -1692.68250    
   9.89999995E-02  -1791.82275    
   9.95000005E-02  -1896.41064    
  0.100000001      -2006.72559    
  0.100500003      -2123.06812    
  0.101000004      -2245.74438    
  0.101499997      -2375.08008    
  0.101999998      -2511.42041    
  0.102499999      -2655.10815    
  0.103000000      -2806.52710    
  0.103500001      -2966.04517    
  0.104000002      -3134.07104    
  0.104500003      -3311.01758    
  0.104999997      -3497.32056    
  0.105499998      -3693.42407    
  0.105999999      -3899.79126    
  0.106500000      -4116.90527    
  0.107000001      -4345.27441    
  0.107500002      -4585.41650    
  0.108000003      -4837.87207    
  0.108499996      -5103.21240    
  0.108999997      -5382.02588    
  0.109499998      -5674.92334    
  0.109999999      -5982.55322    
  0.110500000      -6305.56494    
  0.111000001      -6644.68213    
  0.111500002      -7000.62646    
  0.112000003      -7374.15186    
  0.112499997      -7766.05225    
  0.112999998      -8177.18164    
  0.113499999      -8608.37402    
  0.114000000      -9060.54688    
  0.114500001      -9534.64258    
  0.115000002      -10031.6270    
  0.115500003      -10552.5166    
  0.115999997      -11098.3701    
  0.116499998      -11670.2725    
  0.116999999      -12269.4072    
  0.117500000      -12896.8965    
  0.118000001      -13553.9834    
  0.118500002      -14241.9648    
  0.119000003      -14962.1260    
  0.119499996      -15715.8369    
  0.119999997      -16504.5137    
  0.120499998      -17329.6406    
  0.120999999      -18192.7109    
  0.121500000      -19095.2852    
  0.122000001      -20039.0195    
  0.122500002      -21025.5879    
  0.123000003      -22056.7539    
  0.123499997      -23134.2793    
  0.123999998      -24260.0723    
  0.124499999      -25436.0625    
  0.125000000      -26664.2207    
  0.125499994      -27946.6348    
  0.126000002      -29285.4473    
  0.126499996      -30682.8516    
  0.127000004      -32141.1445    
  0.127499998      -33662.6523    
  0.128000006      -35249.7578    
  0.128500000      -36905.0078    
  0.128999993      -38630.9844    
  0.129500002      -40430.3672    
  0.129999995      -42305.8008    
  0.130500004      -44260.2344    
  0.130999997      -46296.4609    
  0.131500006      -48417.5430    
  0.131999999      -50626.6211    
  0.132499993      -52926.7930    
  0.133000001      -55321.4609    
  0.133499995      -57813.8828    
  0.134000003      -60407.5898    
  0.134499997      -63106.1562    
  0.135000005      -65913.3281    
  0.135499999      -68832.9375    
  0.136000007      -71868.7188    
  0.136500001      -75024.8438    
  0.136999995      -78305.4062    
  0.137500003      -81714.6641    
  0.137999997      -85256.9375    
  0.138500005      -88936.5703    
  0.138999999      -92758.3359    
  0.139500007      -96726.9062    
  0.140000001      -100846.883    
  0.140499994      -105123.422    
  0.141000003      -109561.453    
  0.141499996      -114166.172    
  0.142000005      -118942.914    
  0.142499998      -123896.898    
  0.143000007      -129033.875    
  0.143500000      -134359.281    
  0.143999994      -139879.016    
  0.144500002      -145598.844    
  0.144999996      -151524.938    
  0.145500004      -157663.281    
  0.145999998      -164020.344    
  0.146500006      -170602.422    
  0.147000000      -177415.844    
  0.147499993      -184467.547    
  0.148000002      -191764.328    
  0.148499995      -199312.781    
  0.149000004      -207120.234    
  0.149499997      -215193.938    
  0.150000006      -223540.734    
  0.150500000      -232168.766    
  0.150999993      -241084.797    
  0.151500002      -250296.953    
  0.151999995      -259812.828    
  0.152500004      -269640.406    
  0.152999997      -279787.375    
  0.153500006      -290262.219    
  0.153999999      -301072.812    
  0.154499993      -312227.781    
  0.155000001      -323735.031    
  0.155499995      -335603.781    
  0.156000003      -347841.906    
  0.156499997      -360458.875    
  0.157000005      -373462.438    
  0.157499999      -386861.906    
  0.158000007      -400666.750    
  0.158500001      -414885.188    
  0.158999994      -429525.906    
  0.159500003      -444598.250    
  0.159999996      -460111.531    
  0.160500005      -476074.750    
  0.160999998      -492497.250    
  0.161500007      -509387.750    
  0.162000000      -526755.625    
  0.162499994      -544610.250    
  0.163000003      -562960.625    
  0.163499996      -581815.500    
  0.164000005      -601184.375    
  0.164499998      -621076.000    
  0.165000007      -641500.000    
  0.165500000      -662465.875    
  0.165999994      -683980.688    
  0.166500002      -706055.062    
  0.166999996      -728696.812    
  0.167500004      -751914.875    
  0.167999998      -775718.188    
  0.168500006      -800113.812    
  0.169000000      -825110.062    
  0.169499993      -850715.875    
  0.170000002      -876939.000    
  0.170499995      -903786.500    
  0.171000004      -931266.062    
  0.171499997      -959384.375    
  0.172000006      -988149.125    
  0.172499999      -1017566.75    
  0.172999993      -1047643.19    
  0.173500001      -1078383.62    
  0.173999995      -1109795.50    
  0.174500003      -1141882.12    
  0.174999997      -1174649.62    
  0.175500005      -1208102.00    
  0.175999999      -1242244.00    
  0.176499993      -1277077.12    
  0.177000001      -1312607.12    
  0.177499995      -1348833.88    
  0.178000003      -1385763.50    
  0.178499997      -1423391.88    
  0.179000005      -1461722.50    
  0.179499999      -1500758.12    
  0.180000007      -1540493.62    
  0.180500001      -1580933.38    
  0.180999994      -1622069.12    
  0.181500003      -1663903.75    
  0.181999996      -1706431.38    
  0.182500005      -1749648.12    
  0.182999998      -1793552.88    
  0.183500007      -1838136.88    
  0.184000000      -1883392.12    
  0.184499994      -1929313.88    
  0.185000002      -1975892.75    
  0.185499996      -2023123.38    
  0.186000004      -2070990.00    
  0.186499998      -2119485.25    
  0.187000006      -2168597.25    
  0.187500000      -2218310.25    
  0.187999994      -2268612.25    
  0.188500002      -2319489.75    
  0.188999996      -2370918.50    
  0.189500004      -2422891.00    
  0.189999998      -2475380.00    
  0.190500006      -2528369.50    
  0.191000000      -2581834.25    
  0.191499993      -2635755.75    
  0.192000002      -2690105.50    
  0.192499995      -2744863.25    
  0.193000004      -2799996.50    
  0.193499997      -2855479.50    
  0.194000006      -2911282.75    
  0.194499999      -2967372.00    
  0.194999993      -3023716.25    
  0.195500001      -3080281.00    
  0.195999995      -3137029.25    
  0.196500003      -3193923.50    
  0.196999997      -3250922.75    
  0.197500005      -3307994.00    
  0.197999999      -3365085.75    
  0.198500007      -3422154.25    
  0.199000001      -3479163.75    
  0.199499995      -3536056.25    
  0.200000003      -3592793.75    
  0.200499997      -3649318.50    
  0.201000005      -3705574.00    
  0.201499999      -3761513.25    
  0.202000007      -3817077.75    
  0.202500001      -3872212.00    
  0.202999994      -3926854.50    
  0.203500003      -3980939.00    
  0.203999996      -4034409.25    
  0.204500005      -4087194.50    
  0.204999998      -4139229.75    
  0.205500007      -4190447.75    
  0.206000000      -4240775.00    
  0.206499994      -4290142.50    
  0.207000002      -4338474.00    
  0.207499996      -4385687.50    
  0.208000004      -4431721.00    
  0.208499998      -4476475.00    
  0.209000006      -4519882.50    
  0.209500000      -4561851.50    
  0.209999993      -4602317.00    
  0.210500002      -4641170.00    
  0.210999995      -4678346.50    
  0.211500004      -4713728.00    
  0.211999997      -4747256.50    
  0.212500006      -4778818.00    
  0.213000000      -4808340.50    
  0.213499993      -4835705.00    
  0.214000002      -4860832.50    
  0.214499995      -4883619.00    
  0.215000004      -4903972.50    
  0.215499997      -4921776.50    
  0.216000006      -4936942.00    
  0.216499999      -4949371.00    
  0.216999993      -4958951.50    
  0.217500001      -4965581.00    
  0.217999995      -4969145.50    
  0.218500003      -4969555.00    
  0.218999997      -4966687.00    
  0.219500005      -4960435.50    
  0.219999999      -4950707.50    
  0.220500007      -4937374.50    
  0.221000001      -4920363.00    
  0.221499994      -4899519.00    
  0.222000003      -4874774.00    
  0.222499996      -4846002.50    
  0.223000005      -4813097.00    
  0.223499998      -4775952.00    
  0.224000007      -4734455.00    
  0.224500000      -4688498.50    
  0.224999994      -4637999.50    
  0.225500003      -4582817.00    
  0.225999996      -4522870.50    
  0.226500005      -4458054.50    
  0.226999998      -4388246.00    
  0.227500007      -4313370.50    
  0.228000000      -4233299.50    
  0.228499994      -4147955.00    
  0.229000002      -4057222.25    
  0.229499996      -3961017.75    
  0.230000004      -3859233.50    
  0.230499998      -3751789.50    
  0.231000006      -3638601.75    
  0.231500000      -3519577.00    
  0.231999993      -3394630.50    
  0.232500002      -3263682.50    
  0.232999995      -3126645.00    
  0.233500004      -2983442.75    
  0.233999997      -2834021.00    
  0.234500006      -2678286.75    
  0.234999999      -2516206.75    
  0.235499993      -2347694.50    
  0.236000001      -2172711.00    
  0.236499995      -1991172.00    
  0.237000003      -1803070.12    
  0.237499997      -1608341.75    
  0.238000005      -1406953.00    
  0.238499999      -1198849.88    
  0.238999993      -984007.750    
  0.239500001      -762420.062    
  0.239999995      -534064.750    
  0.240500003      -298909.000    
  0.240999997      -56965.8867    
  0.241500005       191784.156    
  0.241999999       447319.188    
  0.242500007       709657.375    
  0.243000001       978758.000    
  0.243499994       1254623.88    
  0.244000003       1537207.62    
  0.244499996       1826474.38    
  0.245000005       2122369.75    
  0.245499998       2424877.25    
  0.246000007       2733920.50    
  0.246500000       3049433.50    
  0.246999994       3371358.00    
  0.247500002       3699613.25    
  0.247999996       4034106.50    
  0.248500004       4374747.00    
  0.248999998       4721443.00    
  0.249500006       5074088.00    
  0.250000000       5432536.50    
  0.250499994       5796699.00    
  0.250999987       6166433.00    
  0.251500010       6541569.00    
  0.252000004       6921979.50    
  0.252499998       7307516.00    
  0.252999991       7697995.00    
  0.253500015       8093243.00    
  0.254000008       8493083.00    
  0.254500002       8897309.00    
  0.254999995       9305729.00    
  0.255499989       9718140.00    
  0.256000012       10134311.0    
  0.256500006       10554011.0    
  0.256999999       10977020.0    
  0.257499993       11403079.0    
  0.257999986       11831955.0    
  0.258500010       12263380.0    
  0.259000003       12697077.0    
  0.259499997       13132782.0    
  0.259999990       13570216.0    
  0.260500014       14009096.0    
  0.261000007       14449081.0    
  0.261500001       14889927.0    
  0.261999995       15331263.0    
  0.262499988       15772822.0    
  0.263000011       16214235.0    
  0.263500005       16655196.0    
  0.263999999       17095338.0    
  0.264499992       17534318.0    
  0.264999986       17971796.0    
  0.265500009       18407404.0    
  0.266000003       18840764.0    
  0.266499996       19271512.0    
  0.266999990       19699274.0    
  0.267500013       20123658.0    
  0.268000007       20544268.0    
  0.268500000       20960718.0    
  0.268999994       21372602.0    
  0.269499987       21779522.0    
  0.270000011       22181080.0    
  0.270500004       22576850.0    
  0.270999998       22966422.0    
  0.271499991       23349386.0    
  0.272000015       23725322.0    
  0.272500008       24093820.0    
  0.273000002       24454456.0    
  0.273499995       24806794.0    
  0.273999989       25150428.0    
  0.274500012       25484932.0    
  0.275000006       25809892.0    
  0.275500000       26124886.0    
  0.275999993       26429490.0    
  0.276499987       26723288.0    
  0.277000010       27005864.0    
  0.277500004       27276806.0    
  0.277999997       27535698.0    
  0.278499991       27782130.0    
  0.279000014       28015706.0    
  0.279500008       28236008.0    
  0.280000001       28442654.0    
  0.280499995       28635236.0    
  0.280999988       28813386.0    
  0.281500012       28976706.0    
  0.282000005       29124824.0    
  0.282499999       29257374.0    
  0.282999992       29373986.0    
  0.283499986       29474318.0    
  0.284000009       29558006.0    
  0.284500003       29624738.0    
  0.284999996       29674166.0    
  0.285499990       29705984.0    
  0.286000013       29719890.0    
  0.286500007       29715600.0    
  0.287000000       29692804.0    
  0.287499994       29651268.0    
  0.287999988       29590698.0    
  0.288500011       29510876.0    
  0.289000005       29411560.0    
  0.289499998       29292530.0    
  0.289999992       29153586.0    
  0.290499985       28994528.0    
  0.291000009       28815204.0    
  0.291500002       28615430.0    
  0.291999996       28395090.0    
  0.292499989       28154032.0    
  0.293000013       27892168.0    
  0.293500006       27609356.0    
  0.294000000       27305562.0    
  0.294499993       26980694.0    
  0.294999987       26634710.0    
  0.295500010       26267586.0    
  0.296000004       25879298.0    
  0.296499997       25469850.0    
  0.296999991       25039282.0    
  0.297500014       24587622.0    
  0.298000008       24114946.0    
  0.298500001       23621332.0    
  0.298999995       23106886.0    
  0.299499989       22571730.0    
  0.300000012       22015996.0    
  0.300500005       21439842.0    
  0.300999999       20843464.0    
  0.301499993       20227034.0    
  0.301999986       19590806.0    
  0.302500010       18935016.0    
  0.303000003       18259898.0    
  0.303499997       17565780.0    
  0.303999990       16852922.0    
  0.304500014       16121691.0    
  0.305000007       15372378.0    
  0.305500001       14605389.0    
  0.305999994       13821071.0    
  0.306499988       13019777.0    
  0.307000011       12202038.0    
  0.307500005       11368177.0    
  0.307999998       10518747.0    
  0.308499992       9654132.00    
  0.308999985       8774849.00    
  0.309500009       7881453.00    
  0.310000002       6974422.00    
  0.310499996       6054259.00    
  0.310999990       5121521.00    
  0.311500013       4176896.00    
  0.312000006       3220869.25    
  0.312500000       2254074.25    
  0.312999994       1277088.50    
  0.313499987       290607.250    
  0.314000010      -704792.438    
  0.314500004      -1708402.25    
  0.314999998      -2719524.00    
  0.315499991      -3737552.00    
  0.316000015      -4761716.50    
  0.316500008      -5791301.50    
  0.317000002      -6825621.00    
  0.317499995      -7863915.00    
  0.317999989      -8905460.00    
  0.318500012      -9949525.00    
  0.319000006      -10995304.0    
  0.319499999      -12042064.0    
  0.319999993      -13088998.0    
  0.320499986      -14135353.0    
  0.321000010      -15180370.0    
  0.321500003      -16223245.0    
  0.321999997      -17263172.0    
  0.322499990      -18299358.0    
  0.323000014      -19331032.0    
  0.323500007      -20357406.0    
  0.324000001      -21377654.0    
  0.324499995      -22391042.0    
  0.324999988      -23396770.0    
  0.325500011      -24393976.0    
  0.326000005      -25381894.0    
  0.326499999      -26359806.0    
  0.326999992      -27326830.0    
  0.327499986      -28282270.0    
  0.328000009      -29225360.0    
  0.328500003      -30155300.0    
  0.328999996      -31071312.0    
  0.329499990      -31972728.0    
  0.330000013      -32858760.0    
  0.330500007      -33728612.0    
  0.331000000      -34581588.0    
  0.331499994      -35417052.0    
  0.331999987      -36234228.0    
  0.332500011      -37032460.0    
  0.333000004      -37811016.0    
  0.333499998      -38569336.0    
  0.333999991      -39306684.0    
  0.334500015      -40022460.0    
  0.335000008      -40716084.0    
  0.335500002      -41386860.0    
  0.335999995      -42034312.0    
  0.336499989      -42657812.0    
  0.337000012      -43256880.0    
  0.337500006      -43830968.0    
  0.338000000      -44379584.0    
  0.338499993      -44902212.0    
  0.338999987      -45398456.0    
  0.339500010      -45867864.0    
  0.340000004      -46309968.0    
  0.340499997      -46724444.0    
  0.340999991      -47110936.0    
  0.341500014      -47469032.0    
  0.342000008      -47798496.0    
  0.342500001      -48098952.0    
  0.342999995      -48370168.0    
  0.343499988      -48611852.0    
  0.344000012      -48823816.0    
  0.344500005      -49005848.0    
  0.344999999      -49157752.0    
  0.345499992      -49279388.0    
  0.345999986      -49370608.0    
  0.346500009      -49431296.0    
  0.347000003      -49461368.0    
  0.347499996      -49460824.0    
  0.347999990      -49429584.0    
  0.348500013      -49367696.0    
  0.349000007      -49275168.0    
  0.349500000      -49152056.0    
  0.349999994      -48998452.0    
  0.350499988      -48814472.0    
  0.351000011      -48600276.0    
  0.351500005      -48356012.0    
  0.351999998      -48081888.0    
  0.352499992      -47778100.0    
  0.352999985      -47444924.0    
  0.353500009      -47082636.0    
  0.354000002      -46691496.0    
  0.354499996      -46271852.0    
  0.354999989      -45824036.0    
  0.355500013      -45348412.0    
  0.356000006      -44845356.0    
  0.356500000      -44315276.0    
  0.356999993      -43758604.0    
  0.357499987      -43175772.0    
  0.358000010      -42567252.0    
  0.358500004      -41933568.0    
  0.358999997      -41275172.0    
  0.359499991      -40592640.0    
  0.360000014      -39886504.0    
  0.360500008      -39157348.0    
  0.361000001      -38405736.0    
  0.361499995      -37632316.0    
  0.361999989      -36837692.0    
  0.362500012      -36022536.0    
  0.363000005      -35187488.0    
  0.363499999      -34333248.0    
  0.363999993      -33460492.0    
  0.364499986      -32569958.0    
  0.365000010      -31662356.0    
  0.365500003      -30738416.0    
  0.365999997      -29798914.0    
  0.366499990      -28844582.0    
  0.367000014      -27876178.0    
  0.367500007      -26894514.0    
  0.368000001      -25900328.0    
  0.368499994      -24894424.0    
  0.368999988      -23877598.0    
  0.369500011      -22850636.0    
  0.370000005      -21814352.0    
  0.370499998      -20769560.0    
  0.370999992      -19717026.0    
  0.371499985      -18657576.0    
  0.372000009      -17592038.0    
  0.372500002      -16521220.0    
  0.372999996      -15445937.0    
  0.373499990      -14367020.0    
  0.374000013      -13285270.0    
  0.374500006      -12201518.0    
  0.375000000      -11116565.0    
  0.375499994      -10031238.0    
  0.375999987      -8946328.00    
  0.376500010      -7862661.00    
  0.377000004      -6781025.00    
  0.377499998      -5702199.50    
  0.377999991      -4627011.50    
  0.378500015      -3556241.75    
  0.379000008      -2490596.25    
  0.379500002      -1430917.00    
  0.379999995      -377894.312    
  0.380499989       667695.312    
  0.381000012       1705137.62    
  0.381500006       2733717.50    
  0.381999999       3752740.75    
  0.382499993       4761529.50    
  0.382999986       5759350.00    
  0.383500010       6745621.50    
  0.384000003       7719633.00    
  0.384499997       8680803.00    
  0.384999990       9628504.00    
  0.385500014       10562119.0    
  0.386000007       11481093.0    
  0.386500001       12384823.0    
  0.386999995       13272770.0    
  0.387499988       14144423.0    
  0.388000011       14999234.0    
  0.388500005       15836728.0    
  0.388999999       16656426.0    
  0.389499992       17457866.0    
  0.389999986       18240588.0    
  0.390500009       19004204.0    
  0.391000003       19748286.0    
  0.391499996       20472490.0    
  0.391999990       21176406.0    
  0.392500013       21859740.0    
  0.393000007       22522140.0    
  0.393500000       23163310.0    
  0.393999994       23782994.0    
  0.394499987       24380924.0    
  0.395000011       24956854.0    
  0.395500004       25510576.0    
  0.395999998       26041868.0    
  0.396499991       26550596.0    
  0.397000015       27036592.0    
  0.397500008       27499704.0    
  0.398000002       27939844.0    
  0.398499995       28356884.0    
  0.398999989       28750788.0    
  0.399500012       29121452.0    
  0.400000006       29468894.0    
  0.400500000       29793064.0    
  0.400999993       30093974.0    
  0.401499987       30371676.0    
  0.402000010       30626162.0    
  0.402500004       30857544.0    
  0.402999997       31065890.0    
  0.403499991       31251290.0    
  0.404000014       31413882.0    
  0.404500008       31553800.0    
  0.405000001       31671190.0    
  0.405499995       31766234.0    
  0.405999988       31839088.0    
  0.406500012       31889990.0    
  0.407000005       31919180.0    
  0.407499999       31926880.0    
  0.407999992       31913318.0    
  0.408499986       31878804.0    
  0.409000009       31823578.0    
  0.409500003       31747982.0    
  0.409999996       31652266.0    
  0.410499990       31536822.0    
  0.411000013       31401930.0    
  0.411500007       31247944.0    
  0.412000000       31075226.0    
  0.412499994       30884164.0    
  0.412999988       30675104.0    
  0.413500011       30448450.0    
  0.414000005       30204588.0    
  0.414499998       29943938.0    
  0.414999992       29666946.0    
  0.415499985       29373978.0    
  0.416000009       29065498.0    
  0.416500002       28741950.0    
  0.416999996       28403774.0    
  0.417499989       28051422.0    
  0.418000013       27685376.0    
  0.418500006       27306082.0    
  0.419000000       26913996.0    
  0.419499993       26509620.0    
  0.419999987       26093404.0    
  0.420500010       25665856.0    
  0.421000004       25227458.0    
  0.421499997       24778684.0    
  0.421999991       24320046.0    
  0.422500014       23852014.0    
  0.423000008       23375088.0    
  0.423500001       22889752.0    
  0.423999995       22396512.0    
  0.424499989       21895854.0    
  0.425000012       21388276.0    
  0.425500005       20874236.0    
  0.425999999       20354264.0    
  0.426499993       19828814.0    
  0.426999986       19298372.0    
  0.427500010       18763442.0    
  0.428000003       18224482.0    