   0.00000000       0.00000000    
   5.00000024E-04   0.00000000    
   1.00000005E-03   0.00000000    
   1.50000001E-03   0.00000000    
   2.00000009E-03   0.00000000    
   2.49999994E-03   0.00000000    
   3.00000003E-03   0.00000000    
   3.50000011E-03   0.00000000    
   4.00000019E-03   0.00000000    
   4.49999981E-03   0.00000000    
   4.99999989E-03  -8.07791504E-38
   5.49999997E-03  -8.13940514E-37
   6.00000005E-03  -5.79717237E-36
   6.50000013E-03  -3.19876263E-35
   7.00000022E-03  -1.45645989E-34
   7.49999983E-03  -5.68562143E-34
   8.00000038E-03  -1.95130317E-33
   8.50000046E-03  -5.99091431E-33
   8.99999961E-03  -1.66520162E-32
   9.49999969E-03  -4.22195429E-32
   9.99999978E-03  -9.79626899E-32
   1.04999999E-02  -2.07637089E-31
   1.09999999E-02  -3.98028359E-31
   1.15000000E-02  -6.71752939E-31
   1.20000001E-02  -9.25351128E-31
   1.25000002E-02  -7.45590911E-31
   1.30000003E-02   1.04334161E-30
   1.35000004E-02   7.30970761E-30
   1.40000004E-02   2.44100005E-29
   1.44999996E-02   6.54843866E-29
   1.49999997E-02   1.56244666E-28
   1.54999997E-02   3.44751210E-28
   1.60000008E-02   7.17353919E-28
   1.64999999E-02   1.42383943E-27
   1.70000009E-02   2.71591020E-27
   1.75000001E-02   5.00431557E-27
   1.79999992E-02   8.94133392E-27
   1.85000002E-02   1.55364692E-26
   1.89999994E-02   2.63142243E-26
   1.95000004E-02   4.35230431E-26
   1.99999996E-02   7.04037281E-26
   2.05000006E-02   1.11522943E-25
   2.09999997E-02   1.73172200E-25
   2.15000007E-02   2.63824866E-25
   2.19999999E-02   3.94630823E-25
   2.25000009E-02   5.79910880E-25
   2.30000000E-02   8.37591013E-25
   2.34999992E-02   1.18948776E-24
   2.40000002E-02   1.66132154E-24
   2.44999994E-02   2.28229806E-24
   2.50000004E-02   3.08406216E-24
   2.54999995E-02   4.09877611E-24
   2.60000005E-02   5.35607327E-24
   2.64999997E-02   6.87857758E-24
   2.70000007E-02   8.67573762E-24
   2.74999999E-02   1.07357035E-23
   2.80000009E-02   1.30150982E-23
   2.85000000E-02   1.54266310E-23
   2.89999992E-02   1.78247271E-23
   2.95000002E-02   1.99895555E-23
   2.99999993E-02   2.16102371E-23
   3.05000003E-02   2.22683459E-23
   3.09999995E-02   2.14233827E-23
   3.15000005E-02   1.84022885E-23
   3.20000015E-02   1.23957067E-23
   3.24999988E-02   2.46412142E-24
   3.29999998E-02  -1.24425256E-23
   3.35000008E-02  -3.34478822E-23
   3.40000018E-02  -6.16910685E-23
   3.44999991E-02  -9.82437148E-23
   3.50000001E-02  -1.43998985E-22
   3.55000012E-02  -1.99531461E-22
   3.59999985E-02  -2.64926856E-22
   3.64999995E-02  -3.39584223E-22
   3.70000005E-02  -4.21995727E-22
   3.75000015E-02  -5.09512965E-22
   3.79999988E-02  -5.98111006E-22
   3.84999998E-02  -6.82168995E-22
   3.90000008E-02  -7.54287139E-22
   3.95000018E-02  -8.05166370E-22
   3.99999991E-02  -8.23580882E-22
   4.05000001E-02  -7.96473602E-22
   4.10000011E-02  -7.09209632E-22
   4.14999984E-02  -5.46019681E-22
   4.19999994E-02  -2.90662275E-22
   4.25000004E-02   7.26714569E-23
   4.30000015E-02   5.58200248E-22
   4.34999987E-02   1.17713839E-21
   4.39999998E-02   1.93604793E-21
   4.45000008E-02   2.83499232E-21
   4.50000018E-02   3.86555475E-21
   4.54999991E-02   5.00881045E-21
   4.60000001E-02   6.23337177E-21
   4.65000011E-02   7.49364243E-21
   4.69999984E-02   8.72845021E-21
   4.74999994E-02   9.86024897E-21
   4.80000004E-02   1.07950899E-20
   4.85000014E-02   1.14235460E-20
   4.89999987E-02   1.16228174E-20
   4.94999997E-02   1.12601625E-20
   5.00000007E-02   1.01977871E-20
   5.05000018E-02   8.29929130E-21
   5.09999990E-02   5.43764907E-21
   5.15000001E-02   1.50464396E-21
   5.20000011E-02  -3.57843261E-21
   5.24999984E-02  -9.84914908E-21
   5.29999994E-02  -1.72917874E-20
   5.35000004E-02  -2.58252540E-20
   5.40000014E-02  -3.52917675E-20
   5.44999987E-02  -4.54470800E-20
   5.49999997E-02  -5.59531656E-20
   5.55000007E-02  -6.63741873E-20
   5.60000017E-02  -7.61769108E-20
   5.64999990E-02  -8.47362139E-20
   5.70000000E-02  -9.13466019E-20
   5.75000010E-02  -9.52404577E-20
   5.79999983E-02  -9.56131608E-20
   5.84999993E-02  -9.16555151E-20
   5.90000004E-02  -8.25927951E-20
   5.95000014E-02  -6.77301431E-20
   5.99999987E-02  -4.65028403E-20
   6.04999997E-02  -1.85300655E-20
   6.10000007E-02   1.63300849E-20
   6.15000017E-02   5.79268379E-20
   6.19999990E-02   1.05767294E-19
   6.25000000E-02   1.58974136E-19
   6.30000010E-02   2.16254480E-19
   6.35000020E-02   2.75882932E-19
   6.40000030E-02   3.35702334E-19
   6.44999966E-02   3.93145142E-19
   6.49999976E-02   4.45277993E-19
   6.54999986E-02   4.88870670E-19
   6.59999996E-02   5.20491458E-19
   6.65000007E-02   5.36626753E-19
   6.70000017E-02   5.33824679E-19
   6.75000027E-02   5.08858765E-19
   6.80000037E-02   4.58907448E-19
   6.84999973E-02   3.81743387E-19
   6.89999983E-02   2.75924498E-19
   6.94999993E-02   1.40979765E-19
   7.00000003E-02  -2.24215722E-20
   7.05000013E-02  -2.12326368E-19
   7.10000023E-02  -4.25390141E-19
   7.15000033E-02  -6.56815631E-19
   7.19999969E-02  -9.00346909E-19
   7.24999979E-02  -1.14832583E-18
   7.29999989E-02  -1.39181679E-18
   7.34999999E-02  -1.62080468E-18
   7.40000010E-02  -1.82446492E-18
   7.45000020E-02  -1.99150122E-18
   7.50000030E-02  -2.11054658E-18
   7.54999965E-02  -2.17061829E-18
   7.59999976E-02  -2.16160988E-18
   7.64999986E-02  -2.07480224E-18
   7.69999996E-02  -1.90337940E-18
   7.75000006E-02  -1.64291884E-18
   7.80000016E-02  -1.29183722E-18
   7.85000026E-02  -8.51765765E-19
   7.90000036E-02  -3.27829539E-19
   7.94999972E-02   2.71187959E-19
   7.99999982E-02   9.32818711E-19
   8.04999992E-02   1.64102945E-18
   8.10000002E-02   2.37650624E-18
   8.15000013E-02   3.11709634E-18
   8.20000023E-02   3.83840797E-18
   8.25000033E-02   4.51455491E-18
   8.29999968E-02   5.11902376E-18
   8.34999979E-02   5.62563922E-18
   8.39999989E-02   6.00958544E-18
   8.44999999E-02   6.24845369E-18
   8.50000009E-02   6.32325357E-18
   8.55000019E-02   6.21936009E-18
   8.60000029E-02   5.92733018E-18
   8.64999965E-02   5.44355153E-18
   8.69999975E-02   4.77067981E-18
   8.74999985E-02   3.91782930E-18
   8.79999995E-02   2.90048607E-18
   8.85000005E-02   1.74014172E-18
   8.90000015E-02   4.63630339E-19
   8.95000026E-02  -8.97796918E-19
   9.00000036E-02  -2.30965309E-18
   9.04999971E-02  -3.73558818E-18
   9.09999982E-02  -5.13890091E-18
   9.14999992E-02  -6.48412448E-18
   9.20000002E-02  -7.73859723E-18
   9.25000012E-02  -8.87393736E-18
   9.30000022E-02  -9.86732172E-18
   9.35000032E-02  -1.07024896E-17
   9.39999968E-02  -1.13703941E-17
   9.44999978E-02  -1.18694322E-17
   9.49999988E-02  -1.22051831E-17
   9.54999998E-02  -1.23896626E-17
   9.60000008E-02  -1.24400677E-17
   9.65000018E-02  -1.23770390E-17
   9.70000029E-02  -1.22225101E-17
   9.74999964E-02  -1.19972283E-17
   9.79999974E-02  -1.17180540E-17
   9.84999985E-02  -1.13952054E-17
   9.89999995E-02  -1.10295932E-17
   9.95000005E-02  -1.06104484E-17
  0.100000001      -1.01134121E-17
  0.100500003      -9.49929831E-18
  0.101000004      -8.71368353E-18
  0.101499997      -7.68749815E-18
  0.101999998      -6.33872226E-18
  0.102499999      -4.57527163E-18
  0.103000000      -2.29909413E-18
  0.103500001       5.88565424E-19
  0.104000002       4.18083096E-18
  0.104500003       8.55797009E-18
  0.104999997       1.37795270E-17
  0.105499998       1.98761145E-17
  0.105999999       2.68412350E-17
  0.106500000       3.46235801E-17
  0.107000001       4.31201941E-17
  0.107500002       5.21710290E-17
  0.108000003       6.15553864E-17
  0.108499996       7.09905063E-17
  0.108999997       8.01329895E-17
  0.109499998       8.85830696E-17
  0.109999999       9.58921698E-17
  0.110500000       1.01573749E-16
  0.111000001       1.05117431E-16
  0.111500002       1.06006233E-16
  0.112000003       1.03736575E-16
  0.112499997       9.78405904E-17
  0.112999998       8.79100622E-17
  0.113499999       7.36211193E-17
  0.114000000       5.47590488E-17
  0.114500001       3.12417349E-17
  0.115000002       3.14128062E-18
  0.115500003      -2.92980590E-17
  0.115999997      -6.56459468E-17
  0.116499998      -1.05277712E-16
  0.116999999      -1.47372324E-16
  0.117500000      -1.90917494E-16
  0.118000001      -2.34722544E-16
  0.118500002      -2.77438971E-16
  0.119000003      -3.17589339E-16
  0.119499996      -3.53603804E-16
  0.119999997      -3.83863711E-16
  0.120499998      -4.06751706E-16
  0.120999999      -4.20706468E-16
  0.121500000      -4.24281000E-16
  0.122000001      -4.16202926E-16
  0.122500002      -3.95433732E-16
  0.123000003      -3.61226094E-16
  0.123499997      -3.13176377E-16
  0.123999998      -2.51269386E-16
  0.124499999      -1.75914701E-16
  0.125000000      -8.79716441E-17
  0.125499994       1.12396201E-17
  0.126000002       1.19939892E-16
  0.126499996       2.35909555E-16
  0.127000004       3.56521911E-16
  0.127499998       4.78793579E-16
  0.128000006       5.99448975E-16
  0.128500000       7.15000045E-16
  0.128999993       8.21837052E-16
  0.129500002       9.16330724E-16
  0.129999995       9.94940888E-16
  0.130500004       1.05432944E-15
  0.130999997       1.09147374E-15
  0.131500006       1.10377679E-15
  0.131999999       1.08917097E-15
  0.132499993       1.04620989E-15
  0.133000001       9.74146335E-16
  0.133499995       8.72993078E-16
  0.134000003       7.43561891E-16
  0.134499997       5.87480929E-16
  0.135000005       4.07187214E-16
  0.135499999       2.05893367E-16
  0.136000007      -1.24689148E-17
  0.136500001      -2.43330649E-16
  0.136999995      -4.81591594E-16
  0.137500003      -7.21741898E-16
  0.137999997      -9.58003475E-16
  0.138500005      -1.18448209E-15
  0.138999999      -1.39532722E-15
  0.139500007      -1.58489669E-15
  0.140000001      -1.74791517E-15
  0.140499994      -1.87962816E-15
  0.141000003      -1.97593961E-15
  0.141499996      -2.03353764E-15
  0.142000005      -2.04999062E-15
  0.142499998      -2.02382535E-15
  0.143000007      -1.95457194E-15
  0.143500000      -1.84278222E-15
  0.143999994      -1.69001761E-15
  0.144500002      -1.49880119E-15
  0.144999996      -1.27255456E-15
  0.145500004      -1.01549382E-15
  0.145999998      -7.32516316E-16
  0.146500006      -4.29056784E-16
  0.147000000      -1.10946811E-16
  0.147499993       2.15751865E-16
  0.148000002       5.44894707E-16
  0.148499995       8.70416509E-16
  0.149000004       1.18647155E-15
  0.149499997       1.48755841E-15
  0.150000006       1.76863698E-15
  0.150500000       2.02521173E-15
  0.150999993       2.25339309E-15
  0.151500002       2.44993332E-15
  0.151999995       2.61223500E-15
  0.152500004       2.73833639E-15
  0.152999997       2.82687505E-15
  0.153500006       2.87702554E-15
  0.153999999       2.88843698E-15
  0.154499993       2.86114855E-15
  0.155000001       2.79550731E-15
  0.155499995       2.69209432E-15
  0.156000003       2.55165245E-15
  0.156499997       2.37503231E-15
  0.157000005       2.16315867E-15
  0.157499999       1.91702000E-15
  0.158000007       1.63768230E-15
  0.158500001       1.32633565E-15
  0.158999994       9.84351493E-16
  0.159500003       6.13383832E-16
  0.159999996       2.15478750E-16
  0.160500005      -2.06803465E-16
  0.160999998      -6.50267617E-16
  0.161500007      -1.11093580E-15
  0.162000000      -1.58395193E-15
  0.162499994      -2.06348386E-15
  0.163000003      -2.54266056E-15
  0.163499996      -3.01355286E-15
  0.164000005      -3.46721269E-15
  0.164499998      -3.89375159E-15
  0.165000007      -4.28249821E-15
  0.165500000      -4.62221051E-15
  0.165999994      -4.90135784E-15
  0.166500002      -5.10845952E-15
  0.166999996      -5.23247530E-15
  0.167500004      -5.26323700E-15
  0.167999998      -5.19191937E-15
  0.168500006      -5.01151702E-15
  0.169000000      -4.71731791E-15
  0.169499993      -4.30735439E-15
  0.170000002      -3.78279197E-15
  0.170499995      -3.14827493E-15
  0.171000004      -2.41215502E-15
  0.171499997      -1.58662421E-15
  0.172000006      -6.87714361E-16
  0.172499999       2.64863682E-16
  0.172999993       1.24799060E-15
  0.173500001       2.23562954E-15
  0.173999995       3.19941857E-15
  0.174500003       4.10944387E-15
  0.174999997       4.93514599E-15
  0.175500005       5.64633010E-15
  0.175999999       6.21428263E-15
  0.176499993       6.61291709E-15
  0.177000001       6.81997260E-15
  0.177499995       6.81816757E-15
  0.178000003       6.59625934E-15
  0.178499997       6.15001400E-15
  0.179000005       5.48301960E-15
  0.179499999       4.60726207E-15
  0.180000007       3.54344566E-15
  0.180500001       2.32105239E-15
  0.180999994       9.78042157E-16
  0.181500003      -4.39717170E-16
  0.181999996      -1.87945218E-15
  0.182500005      -3.28280091E-15
  0.182999998      -4.58737501E-15
  0.183500007      -5.72874640E-15
  0.184000000      -6.64262423E-15
  0.184499994      -7.26724453E-15
  0.185000002      -7.54591498E-15
  0.185499996      -7.42958602E-15
  0.186000004      -6.87939492E-15
  0.186499998      -5.86918065E-15
  0.187000006      -4.38759255E-15
  0.187500000      -2.44012383E-15
  0.187999994      -5.05329136E-17
  0.188500002       2.73806322E-15
  0.188999996       5.86275930E-15
  0.189500004       9.24111251E-15
  0.189999998       1.27719465E-14
  0.190500006       1.63369735E-14
  0.191000000       1.98031153E-14
  0.191499993       2.30255370E-14
  0.192000002       2.58513304E-14
  0.192499995       2.81238503E-14
  0.193000004       2.96874613E-14
  0.193499997       3.03930058E-14
  0.194000006       3.01030664E-14
  0.194499999       2.86977033E-14
  0.194999993       2.60800987E-14
  0.195500001       2.21819023E-14
  0.195999995       1.69681875E-14
  0.196500003       1.04417453E-14
  0.196999997       2.64659425E-15
  0.197500005      -6.32919535E-15
  0.197999999      -1.63519321E-14
  0.198500007      -2.72425295E-14
  0.199000001      -3.87769108E-14
  0.199499995      -5.06890536E-14
  0.200000003      -6.26744885E-14
  0.200499997      -7.43957779E-14
  0.201000005      -8.54896937E-14
  0.201499999      -9.55744679E-14
  0.202000007      -1.04259923E-13
  0.202500001      -1.11156493E-13
  0.202999994      -1.15887185E-13
  0.203500003      -1.18098321E-13
  0.203999996      -1.17471584E-13
  0.204500005      -1.13735152E-13
  0.204999998      -1.06675255E-13
  0.205500007      -9.61459983E-14
  0.206000000      -8.20787462E-14
  0.206499994      -6.44898157E-14
  0.207000002      -4.34869561E-14
  0.207499996      -1.92729743E-14
  0.208000004       7.85192342E-15
  0.208499998       3.74911487E-14
  0.209000006       6.91544261E-14
  0.209500000       1.02263731E-13
  0.209999993       1.36161021E-13
  0.210500002       1.70119710E-13
  0.210999995       2.03357052E-13
  0.211500004       2.35049962E-13
  0.211999997       2.64352613E-13
  0.212500006       2.90413174E-13
  0.213000000       3.12396945E-13
  0.213499993       3.29504246E-13
  0.214000002       3.40994024E-13
  0.214499995       3.46201176E-13
  0.215000004       3.44559505E-13
  0.215499997       3.35618902E-13
  0.216000006       3.19061536E-13
  0.216499999       2.94718351E-13
  0.216999993       2.62579346E-13
  0.217500001       2.22800619E-13
  0.217999995       1.75712960E-13
  0.218500003       1.21819438E-13
  0.218999997       6.17973283E-14
  0.219500005      -3.51491293E-15
  0.219999999      -7.31215286E-14
  0.220500007      -1.45889214E-13
  0.221000001      -2.20561999E-13
  0.221499994      -2.95784529E-13
  0.222000003      -3.70127106E-13
  0.222499996      -4.42112682E-13
  0.223000005      -5.10244733E-13
  0.223499998      -5.73039663E-13
  0.224000007      -6.29057299E-13
  0.224500000      -6.76934095E-13
  0.224999994      -7.15411671E-13
  0.225500003      -7.43367011E-13
  0.225999996      -7.59841083E-13
  0.226500005      -7.64063671E-13
  0.226999998      -7.55473483E-13
  0.227500007      -7.33736531E-13
  0.228000000      -6.98760223E-13
  0.228499994      -6.50698571E-13
  0.229000002      -5.89959667E-13
  0.229499996      -5.17202383E-13
  0.230000004      -4.33331024E-13
  0.230499998      -3.39481400E-13
  0.231000006      -2.37000686E-13
  0.231500000      -1.27431580E-13
  0.231999993      -1.24805417E-14
  0.232500002       1.06011845E-13
  0.232999995       2.26100388E-13
  0.233500004       3.45780804E-13
  0.233999997       4.63018079E-13
  0.234500006       5.75793157E-13
  0.234999999       6.82140379E-13
  0.235499993       7.80193022E-13
  0.236000001       8.68211590E-13
  0.236499995       9.44623936E-13
  0.237000003       1.00806689E-12
  0.237499997       1.05740926E-12
  0.238000005       1.09177565E-12
  0.238499999       1.11057203E-12
  0.238999993       1.11349775E-12
  0.239500001       1.10055476E-12
  0.239999995       1.07205499E-12
  0.240500003       1.02861502E-12
  0.240999997       9.71146666E-13
  0.241500005       9.00840871E-13
  0.241999999       8.19147809E-13
  0.242500007       7.27744742E-13
  0.243000001       6.28509180E-13
  0.243499994       5.23475631E-13
  0.244000003       4.14795531E-13
  0.244499996       3.04697782E-13
  0.245000005       1.95423132E-13
  0.245499998       8.91964183E-14
  0.246000007      -1.18370737E-14
  0.246500000      -1.05660550E-13
  0.246999994      -1.90441386E-13
  0.247500002      -2.64565198E-13
  0.247999996      -3.26683694E-13
  0.248500004      -3.75757747E-13
  0.248999998      -4.11077964E-13
  0.249500006      -4.32319219E-13
  0.250000000      -4.39536076E-13
  0.250499994      -4.33174167E-13
  0.250999987      -4.14092941E-13
  0.251500010      -3.83565765E-13
  0.252000004      -3.43225123E-13
  0.252499998      -2.95076490E-13
  0.252999991      -2.41466298E-13
  0.253500015      -1.85023058E-13
  0.254000008      -1.28588912E-13
  0.254500002      -7.52288517E-14
  0.254999995      -2.80942922E-14
  0.255499989       9.61790665E-15
  0.256000012       3.47199618E-14
  0.256500006       4.41696105E-14
  0.256999999       3.51201375E-14
  0.257499993       4.99994740E-15
  0.257999986      -4.83919410E-14
  0.258500010      -1.26835865E-13
  0.259000003      -2.31572140E-13
  0.259499997      -3.63257303E-13
  0.259999990      -5.21897629E-13
  0.260500014      -7.06809882E-13
  0.261000007      -9.16577361E-13
  0.261500001      -1.14903519E-12
  0.261999995      -1.40124262E-12
  0.262499988      -1.66952303E-12
  0.263000011      -1.94944733E-12
  0.263500005      -2.23592000E-12
  0.263999999      -2.52319758E-12
  0.264499992      -2.80503637E-12
  0.264999986      -3.07466509E-12
  0.265500009      -3.32503079E-12
  0.266000003      -3.54884850E-12
  0.266499996      -3.73875063E-12
  0.266999990      -3.88751704E-12
  0.267500013      -3.98803473E-12
  0.268000007      -4.03367270E-12
  0.268500000      -4.01832951E-12
  0.268999994      -3.93667520E-12
  0.269499987      -3.78417089E-12
  0.270000011      -3.55736122E-12
  0.270500004      -3.25400839E-12
  0.270999998      -2.87311212E-12
  0.271499991      -2.41505405E-12
  0.272000015      -1.88174454E-12
  0.272500008      -1.27658496E-12
  0.273000002      -6.04486621E-13
  0.273499995       1.28075041E-13
  0.273999989       9.13059992E-13
  0.274500012       1.74108210E-12
  0.275000006       2.60137333E-12
  0.275500000       3.48210957E-12
  0.275999993       4.37027671E-12
  0.276499987       5.25214117E-12
  0.277000010       6.11339625E-12
  0.277500004       6.93939047E-12
  0.277999997       7.71533445E-12
  0.278499991       8.42673240E-12
  0.279000014       9.05957254E-12
  0.279500008       9.60062672E-12
  0.280000001       1.00377736E-11
  0.280499995       1.03602630E-11
  0.280999988       1.05589877E-11
  0.281500012       1.06267278E-11
  0.282000005       1.05583337E-11
  0.282499999       1.03509501E-11
  0.282999992       1.00041329E-11
  0.283499986       9.52000805E-12
  0.284000009       8.90315339E-12
  0.284500003       8.16075072E-12
  0.284999996       7.30247893E-12
  0.285499990       6.34041517E-12
  0.286000013       5.28889346E-12
  0.286500007       4.16417638E-12
  0.287000000       2.98430703E-12
  0.287499994       1.76874899E-12
  0.287999988       5.37984316E-13
  0.288500011      -6.86632121E-13
  0.289000005      -1.88360005E-12
  0.289499998      -3.03170965E-12
  0.289999992      -4.11000661E-12
  0.290499985      -5.09899111E-12
  0.291000009      -5.98043750E-12
  0.291500002      -6.73804632E-12
  0.291999996      -7.35788513E-12
  0.292499989      -7.82860322E-12
  0.293000013      -8.14186999E-12
  0.293500006      -8.29259144E-12
  0.294000000      -8.27894871E-12
  0.294499993      -8.10305208E-12
  0.294999987      -7.77050473E-12
  0.295500010      -7.29014592E-12
  0.296000004      -6.67481825E-12
  0.296499997      -5.94081988E-12
  0.296999991      -5.10699469E-12
  0.297500014      -4.19549942E-12
  0.298000008      -3.23081622E-12
  0.298500001      -2.23932158E-12
  0.298999995      -1.24891818E-12
  0.299499989      -2.88346197E-13
  0.300000012       6.13072202E-13
  0.300500005       1.42641519E-12
  0.300999999       2.12359730E-12
  0.301499993       2.67806177E-12
  0.301999986       3.06537001E-12
  0.302500010       3.26371395E-12
  0.303000003       3.25446311E-12
  0.303499997       3.02269668E-12
  0.303999990       2.55779013E-12
  0.304500014       1.85364116E-12
  0.305000007       9.08694398E-13
  0.305500001      -2.73321350E-13
  0.305999994      -1.68369301E-12
  0.306499988      -3.30841431E-12
  0.307000011      -5.12860457E-12
  0.307500005      -7.12032516E-12
  0.307999998      -9.25545491E-12
  0.308499992      -1.15013251E-11
  0.308999985      -1.38214093E-11
  0.309500009      -1.61765653E-11
  0.310000002      -1.85247338E-11
  0.310499996      -2.08218998E-11
  0.310999990      -2.30231684E-11
  0.311500013      -2.50829184E-11
  0.312000006      -2.69562584E-11
  0.312500000      -2.85997528E-11
  0.312999994      -2.99717057E-11
  0.313499987      -3.10334154E-11
  0.314000010      -3.17495162E-11
  0.314500004      -3.20891543E-11
  0.314999998      -3.20264371E-11
  0.315499991      -3.15409851E-11
  0.316000015      -3.06181053E-11
  0.316500008      -2.92497866E-11
  0.317000002      -2.74345806E-11
  0.317499995      -2.51775788E-11
  0.317999989      -2.24914410E-11
  0.318500012      -1.93950845E-11
  0.319000006      -1.59144121E-11
  0.319499999      -1.20817280E-11
  0.319999993      -7.93617862E-12
  0.320499986      -3.52141797E-12
  0.321000010       1.11438571E-12
  0.321500003       5.91753643E-12
  0.321999997       1.08309906E-11
  0.322499990       1.57948672E-11
  0.323000014       2.07476848E-11
  0.323500007       2.56265044E-11
  0.324000001       3.03683918E-11
  0.324499995       3.49119379E-11
  0.324999988       3.91961671E-11
  0.325500011       4.31629489E-11
  0.326000005       4.67574521E-11
  0.326499999       4.99291858E-11
  0.326999992       5.26331860E-11
  0.327499986       5.48296547E-11
  0.328000009       5.64848619E-11
  0.328500003       5.75713678E-11
  0.328999996       5.80685361E-11
  0.329499990       5.79629643E-11
  0.330000013       5.72494656E-11
  0.330500007       5.59297608E-11
  0.331000000       5.40123467E-11
  0.331499994       5.15135608E-11
  0.331999987       4.84565686E-11
  0.332500011       4.48693062E-11
  0.333000004       4.07857463E-11
  0.333499998       3.62459854E-11
  0.333999991       3.12941131E-11
  0.334500015       2.59782976E-11
  0.335000008       2.03491078E-11
  0.335500002       1.44579834E-11
  0.335999995       8.35803822E-12
  0.336499989       2.10231528E-12
  0.337000012      -4.25876391E-12
  0.337500006      -1.06728116E-11
  0.338000000      -1.70919511E-11
  0.338499993      -2.34738409E-11
  0.338999987      -2.97806432E-11
  0.339500010      -3.59758300E-11
  0.340000004      -4.20281136E-11
  0.340499997      -4.79156020E-11
  0.340999991      -5.36235882E-11
  0.341500014      -5.91445920E-11
  0.342000008      -6.44776524E-11
  0.342500001      -6.96252431E-11
  0.342999995      -7.46005410E-11
  0.343499988      -7.94274854E-11
  0.344000012      -8.41321179E-11
  0.344500005      -8.87471832E-11
  0.344999999      -9.33114835E-11
  0.345499992      -9.78704756E-11
  0.345999986      -1.02477790E-10
  0.346500009      -1.07188973E-10
  0.347000003      -1.12060521E-10
  0.347499996      -1.17154425E-10
  0.347999990      -1.22533386E-10
  0.348500013      -1.28259417E-10
  0.349000007      -1.34403530E-10
  0.349500000      -1.41029591E-10
  0.349999994      -1.48194970E-10
  0.350499988      -1.55961605E-10
  0.351000011      -1.64389502E-10
  0.351500005      -1.73532175E-10
  0.351999998      -1.83441456E-10
  0.352499992      -1.94166211E-10
  0.352999985      -2.05748377E-10
  0.353500009      -2.18219359E-10
  0.354000002      -2.31614103E-10
  0.354499996      -2.45957643E-10
  0.354999989      -2.61270922E-10
  0.355500013      -2.77566747E-10
  0.356000006      -2.94862551E-10
  0.356500000      -3.13166520E-10
  0.356999993      -3.32482181E-10
  0.357499987      -3.52812946E-10
  0.358000010      -3.74149545E-10
  0.358500004      -3.96494282E-10
  0.358999997      -4.19840218E-10
  0.359499991      -4.44178028E-10
  0.360000014      -4.69514649E-10
  0.360500008      -4.95850139E-10
  0.361000001      -5.23163513E-10
  0.361499995      -5.51475698E-10
  0.361999989      -5.80772763E-10
  0.362500012      -6.11068696E-10
  0.363000005      -6.42365772E-10
  0.363499999      -6.74687362E-10
  0.363999993      -7.08047343E-10
  0.364499986      -7.42459649E-10
  0.365000010      -7.77966358E-10
  0.365500003      -8.14567358E-10
  0.365999997      -8.52309168E-10
  0.366499990      -8.91224539E-10
  0.367000014      -9.31373867E-10
  0.367500007      -9.72808278E-10
  0.368000001      -1.01556075E-09
  0.368499994      -1.05965881E-09
  0.368999988      -1.10519116E-09
  0.369500011      -1.15218579E-09
  0.370000005      -1.20068899E-09
  0.370499998      -1.25073829E-09
  0.370999992      -1.30240807E-09
  0.371499985      -1.35570766E-09
  0.372000009      -1.41066503E-09
  0.372500002      -1.46736390E-09
  0.372999996      -1.52582302E-09
  0.373499990      -1.58614488E-09
  0.374000013      -1.64833858E-09
  0.374500006      -1.71239489E-09
  0.375000000      -1.77835124E-09
  0.375499994      -1.84625382E-09
  0.375999987      -1.91610305E-09
  0.376500010      -1.98794536E-09
  0.377000004      -2.06178075E-09
  0.377499998      -2.13773910E-09
  0.377999991      -2.21578400E-09
  0.378500015      -2.29604535E-09
  0.379000008      -2.37852338E-09
  0.379500002      -2.46323650E-09
  0.379999995      -2.55035237E-09
  0.380499989      -2.63994560E-09
  0.381000012      -2.73197887E-09
  0.381500006      -2.82661983E-09
  0.381999999      -2.92394309E-09
  0.382499993      -3.02404191E-09
  0.382999986      -3.12708326E-09
  0.383500010      -3.23288152E-09
  0.384000003      -3.34180905E-09
  0.384499997      -3.45390294E-09
  0.384999990      -3.56923802E-09
  0.385500014      -3.68807473E-09
  0.386000007      -3.81048793E-09
  0.386500001      -3.93651423E-09
  0.386999995      -4.06611722E-09
  0.387499988      -4.19951984E-09
  0.388000011      -4.33690861E-09
  0.388500005      -4.47832083E-09
  0.388999999      -4.62364458E-09
  0.389499992      -4.77366147E-09
  0.389999986      -4.92803753E-09
  0.390500009      -5.08651166E-09
  0.391000003      -5.24930677E-09
  0.391499996      -5.41605072E-09
  0.391999990      -5.58689273E-09
  0.392500013      -5.76190651E-09
  0.393000007      -5.94139138E-09
  0.393500000      -6.12489925E-09
  0.393999994      -6.31198294E-09
  0.394499987      -6.50279253E-09
  0.395000011      -6.69650735E-09
  0.395500004      -6.89215973E-09
  0.395999998      -7.08974923E-09
  0.396499991      -7.28972260E-09
  0.397000015      -7.49051576E-09
  0.397500008      -7.69153274E-09
  0.398000002      -7.89232502E-09
  0.398499995      -8.09185163E-09
  0.398999989      -8.28959035E-09
  0.399500012      -8.48516812E-09
  0.400000006      -8.67694627E-09
  0.400500000      -8.86291218E-09
  0.400999993      -9.04180109E-09
  0.401499987      -9.21323906E-09
  0.402000010      -9.37603417E-09
  0.402500004      -9.52743040E-09
  0.402999997      -9.66653246E-09
  0.403499991      -9.79021220E-09
  0.404000014      -9.89764892E-09
  0.404500008      -9.98720573E-09
  0.405000001      -1.00553041E-08
  0.405499995      -1.01003055E-08
  0.405999988      -1.01192299E-08
  0.406500012      -1.01120774E-08
  0.407000005      -1.00733342E-08
  0.407499999      -1.00000204E-08
  0.407999992      -9.88841098E-09
  0.408499986      -9.73492931E-09
  0.409000009      -9.53883017E-09
  0.409500003      -9.29400290E-09
  0.409999996      -8.99508557E-09
  0.410499990      -8.63656435E-09
  0.411000013      -8.21590440E-09
  0.411500007      -7.73429853E-09
  0.412000000      -7.18533988E-09
  0.412499994      -6.55651133E-09
  0.412999988      -5.84125548E-09
  0.413500011      -5.03763609E-09
  0.414000005      -4.14013890E-09
  0.414499998      -3.13371418E-09
  0.414999992      -2.01240202E-09
  0.415499985      -7.77542641E-10
  0.416000009       5.82337401E-10
  0.416500002       2.08169237E-09
  0.416999996       3.72573750E-09
  0.417499989       5.52684076E-09
  0.418000013       7.49357021E-09
  0.418500006       9.63449498E-09
  0.419000000       1.19721149E-08
  0.419499993       1.45192454E-08
  0.419999987       1.72749157E-08
  0.420500010       2.02589483E-08
  0.421000004       2.35022242E-08
  0.421499997       2.70108877E-08
  0.421999991       3.07948334E-08
  0.422500014       3.48814915E-08
  0.423000008       3.92946795E-08
  0.423500001       4.40528254E-08
  0.423999995       4.91765171E-08
  0.424499989       5.46897958E-08
  0.425000012       6.06232859E-08
  0.425500005       6.70015794E-08
  0.425999999       7.38622319E-08
  0.426499993       8.12312990E-08
  0.426999986       8.91131151E-08
  0.427500010       9.75537304E-08
  0.428000003       1.06599330E-07