   0.00000000       0.00000000    
   5.00000024E-04   0.00000000    
   1.00000005E-03   0.00000000    
   1.50000001E-03   0.00000000    
   2.00000009E-03   0.00000000    
   2.49999994E-03   0.00000000    
   3.00000003E-03   0.00000000    
   3.50000011E-03   0.00000000    
   4.00000019E-03   0.00000000    
   4.49999981E-03  -9.79631909E-36
   4.99999989E-03  -1.04317386E-34
   5.49999997E-03  -1.15679104E-33
   6.00000005E-03  -8.86729094E-33
   6.50000013E-03  -5.28302073E-32
   7.00000022E-03  -2.61294832E-31
   7.49999983E-03  -1.11465255E-30
   8.00000038E-03  -4.20856167E-30
   8.50000046E-03  -1.43378142E-29
   8.99999961E-03  -4.47179236E-29
   9.49999969E-03  -1.29126982E-28
   9.99999978E-03  -3.48314806E-28
   1.04999999E-02  -8.84084563E-28
   1.09999999E-02  -2.12407520E-27
   1.15000000E-02  -4.85460803E-27
   1.20000001E-02  -1.05987900E-26
   1.25000002E-02  -2.21823095E-26
   1.30000003E-02  -4.46381874E-26
   1.35000004E-02  -8.65893851E-26
   1.40000004E-02  -1.62264460E-25
   1.44999996E-02  -2.94294200E-25
   1.49999997E-02  -5.17379010E-25
   1.54999997E-02  -8.82783966E-25
   1.60000008E-02  -1.46336814E-24
   1.64999999E-02  -2.35845824E-24
   1.70000009E-02  -3.69726682E-24
   1.75000001E-02  -5.63876040E-24
   1.79999992E-02  -8.36480652E-24
   1.85000002E-02  -1.20622039E-23
   1.89999994E-02  -1.68878538E-23
   1.95000004E-02  -2.29101678E-23
   1.99999996E-02  -3.00183694E-23
   2.05000006E-02  -3.77922213E-23
   2.09999997E-02  -4.53234353E-23
   2.15000007E-02  -5.09864469E-23
   2.19999999E-02  -5.21558985E-23
   2.25000009E-02  -4.48813072E-23
   2.30000000E-02  -2.35387985E-23
   2.34999992E-02   1.95076088E-23
   2.40000002E-02   9.41789291E-23
   2.44999994E-02   2.12814402E-22
   2.50000004E-02   3.90064758E-22
   2.54999995E-02   6.42423128E-22
   2.60000005E-02   9.87251875E-22
   2.64999997E-02   1.44115966E-21
   2.70000007E-02   2.01756056E-21
   2.74999999E-02   2.72330032E-21
   2.80000009E-02   3.55425696E-21
   2.85000000E-02   4.48990486E-21
   2.89999992E-02   5.48692488E-21
   2.95000002E-02   6.47214909E-21
   2.99999993E-02   7.33521068E-21
   3.05000003E-02   7.92163812E-21
   3.09999995E-02   8.02715373E-21
   3.15000005E-02   7.39450838E-21
   3.20000015E-02   5.71397667E-21
   3.24999988E-02   2.62932787E-21
   3.29999998E-02  -2.24917739E-21
   3.35000008E-02  -9.32324316E-21
   3.40000018E-02  -1.89746072E-20
   3.44999991E-02  -3.15219435E-20
   3.50000001E-02  -4.71660130E-20
   3.55000012E-02  -6.59234578E-20
   3.59999985E-02  -8.75508187E-20
   3.64999995E-02  -1.11461282E-19
   3.70000005E-02  -1.36640091E-19
   3.75000015E-02  -1.61563289E-19
   3.79999988E-02  -1.84129849E-19
   3.84999998E-02  -2.01614392E-19
   3.90000008E-02  -2.10657557E-19
   3.95000018E-02  -2.07297665E-19
   3.99999991E-02  -1.87067309E-19
   4.05000001E-02  -1.45155101E-19
   4.10000011E-02  -7.66537417E-20
   4.14999984E-02   2.31065165E-20
   4.19999994E-02   1.58132854E-19
   4.25000004E-02   3.31255876E-19
   4.30000015E-02   5.43544568E-19
   4.34999987E-02   7.93662685E-19
   4.39999998E-02   1.07720154E-18
   4.45000008E-02   1.38602942E-18
   4.50000018E-02   1.70771200E-18
   4.54999991E-02   2.02504609E-18
   4.60000001E-02   2.31581083E-18
   4.65000011E-02   2.55276312E-18
   4.69999984E-02   2.70398994E-18
   4.74999994E-02   2.73364767E-18
   4.80000004E-02   2.60318909E-18
   4.85000014E-02   2.27307785E-18
   4.89999987E-02   1.70502914E-18
   4.94999997E-02   8.64757515E-19
   5.00000007E-02  -2.74800256E-19
   5.05000018E-02  -1.72992273E-18
   5.09999990E-02  -3.50225707E-18
   5.15000001E-02  -5.57501328E-18
   5.20000011E-02  -7.90923467E-18
   5.24999984E-02  -1.04405984E-17
   5.29999994E-02  -1.30768983E-17
   5.35000004E-02  -1.56966521E-17
   5.40000014E-02  -1.81490838E-17
   5.44999987E-02  -2.02558251E-17
   5.49999997E-02  -2.18145610E-17
   5.55000007E-02  -2.26049304E-17
   5.60000017E-02  -2.23967026E-17
   5.64999990E-02  -2.09603514E-17
   5.70000000E-02  -1.80797297E-17
   5.75000010E-02  -1.35668630E-17
   5.79999983E-02  -7.27831920E-18
   5.84999993E-02   8.67814930E-19
   5.90000004E-02   1.08746151E-17
   5.95000014E-02   2.26493897E-17
   5.99999987E-02   3.59894274E-17
   6.04999997E-02   5.05697529E-17
   6.10000007E-02   6.59356453E-17
   6.15000017E-02   8.15001668E-17
   6.19999990E-02   9.65483689E-17
   6.25000000E-02   1.10248286E-16
   6.30000010E-02   1.21670804E-16
   6.35000020E-02   1.29816825E-16
   6.40000030E-02   1.33653567E-16
   6.44999966E-02   1.32158911E-16
   6.49999976E-02   1.24372653E-16
   6.54999986E-02   1.09452942E-16
   6.59999996E-02   8.67370274E-17
   6.65000007E-02   5.58034372E-17
   6.70000017E-02   1.65320102E-17
   6.75000027E-02  -3.08400527E-17
   6.80000037E-02  -8.56715791E-17
   6.84999973E-02  -1.46880370E-16
   6.89999983E-02  -2.12923264E-16
   6.94999993E-02  -2.81792588E-16
   7.00000003E-02  -3.51034964E-16
   7.05000013E-02  -4.17793284E-16
   7.10000023E-02  -4.78870024E-16
   7.15000033E-02  -5.30818766E-16
   7.19999969E-02  -5.70056720E-16
   7.24999979E-02  -5.92998978E-16
   7.29999989E-02  -5.96211298E-16
   7.34999999E-02  -5.76574745E-16
   7.40000010E-02  -5.31462352E-16
   7.45000020E-02  -4.58905510E-16
   7.50000030E-02  -3.57770306E-16
   7.54999965E-02  -2.27899667E-16
   7.59999976E-02  -7.02481547E-17
   7.64999986E-02   1.13025985E-16
   7.69999996E-02   3.18500932E-16
   7.75000006E-02   5.41481905E-16
   7.80000016E-02   7.76038563E-16
   7.85000026E-02   1.01509858E-15
   7.90000036E-02   1.25060052E-15
   7.94999972E-02   1.47369344E-15
   7.99999982E-02   1.67498785E-15
   8.04999992E-02   1.84486529E-15
   8.10000002E-02   1.97379853E-15
   8.15000013E-02   2.05272124E-15
   8.20000023E-02   2.07340113E-15
   8.25000033E-02   2.02879743E-15
   8.29999968E-02   1.91342646E-15
   8.34999979E-02   1.72368007E-15
   8.39999989E-02   1.45809257E-15
   8.44999999E-02   1.11755007E-15
   8.50000009E-02   7.05441067E-16
   8.55000019E-02   2.27700482E-16
   8.60000029E-02  -3.07225785E-16
   8.64999965E-02  -8.88498916E-16
   8.69999975E-02  -1.50310390E-15
   8.74999985E-02  -2.13615526E-15
   8.79999995E-02  -2.77127263E-15
   8.85000005E-02  -3.39101424E-15
   8.90000015E-02  -3.97735713E-15
   8.95000026E-02  -4.51221820E-15
   9.00000036E-02  -4.97796096E-15
   9.04999971E-02  -5.35788743E-15
   9.09999982E-02  -5.63672263E-15
   9.14999992E-02  -5.80101102E-15
   9.20000002E-02  -5.83944810E-15
   9.25000012E-02  -5.74314512E-15
   9.30000022E-02  -5.50577133E-15
   9.35000032E-02  -5.12365402E-15
   9.39999968E-02  -4.59572337E-15
   9.44999978E-02  -3.92343162E-15
   9.49999988E-02  -3.11058217E-15
   9.54999998E-02  -2.16311547E-15
   9.60000008E-02  -1.08889336E-15
   9.65000018E-02   1.02544363E-16
   9.70000029E-02   1.40014144E-15
   9.74999964E-02   2.79144811E-15
   9.79999974E-02   4.26267637E-15
   9.84999985E-02   5.79860079E-15
   9.89999995E-02   7.38238257E-15
   9.95000005E-02   8.99525781E-15
  0.100000001       1.06161197E-14
  0.100500003       1.22209964E-14
  0.101000004       1.37824754E-14
  0.101499997       1.52691326E-14
  0.101999998       1.66449496E-14
  0.102499999       1.78688834E-14
  0.103000000       1.88946013E-14
  0.103500001       1.96704056E-14
  0.104000002       2.01395585E-14
  0.104500003       2.02409873E-14
  0.104999997       1.99103006E-14
  0.105499998       1.90815534E-14
  0.105999999       1.76892751E-14
  0.106500000       1.56711582E-14
  0.107000001       1.29711974E-14
  0.107500002       9.54330507E-15
  0.108000003       5.35513796E-15
  0.108499996       3.92319535E-16
  0.108999997      -5.33738753E-15
  0.109499998      -1.17999753E-14
  0.109999999      -1.89315116E-14
  0.110500000      -2.66347715E-14
  0.111000001      -3.47770654E-14
  0.111500002      -4.31886108E-14
  0.112000003      -5.16625418E-14
  0.112499997      -5.99562175E-14
  0.112999998      -6.77940980E-14
  0.113499999      -7.48724338E-14
  0.114000000      -8.08657882E-14
  0.114500001      -8.54352803E-14
  0.115000002      -8.82386612E-14
  0.115500003      -8.89417934E-14
  0.115999997      -8.72316000E-14
  0.116499998      -8.28298815E-14
  0.116999999      -7.55077966E-14
  0.117500000      -6.51005129E-14
  0.118000001      -5.15208265E-14
  0.118500002      -3.47727354E-14
  0.119000003      -1.49624270E-14
  0.119499996       7.69255333E-15
  0.119999997       3.28571771E-14
  0.120499998       6.00761777E-14
  0.120999999       8.87754226E-14
  0.121500000       1.18267199E-13
  0.122000001       1.47760669E-13
  0.122500002       1.76376451E-13
  0.123000003       2.03166138E-13
  0.123499997       2.27136425E-13
  0.123999998       2.47276673E-13
  0.124499999       2.62590324E-13
  0.125000000       2.72129351E-13
  0.125499994       2.75028698E-13
  0.126000002       2.70543462E-13
  0.126499996       2.58083946E-13
  0.127000004       2.37249538E-13
  0.127499998       2.07858646E-13
  0.128000006       1.69974535E-13
  0.128500000       1.23924701E-13
  0.128999993       7.03143734E-14
  0.129500002       1.00301991E-14
  0.129999995      -5.57638008E-14
  0.130500004      -1.25639557E-13
  0.130999997      -1.97929740E-13
  0.131500006      -2.70759082E-13
  0.131999999      -3.42089096E-13
  0.132499993      -4.09766784E-13
  0.133000001      -4.71584956E-13
  0.133499995      -5.25346368E-13
  0.134000003      -5.68930536E-13
  0.134499997      -6.00368171E-13
  0.135000005      -6.17908285E-13
  0.135499999      -6.20090025E-13
  0.136000007      -6.05804686E-13
  0.136500001      -5.74353553E-13
  0.136999995      -5.25495934E-13
  0.137500003      -4.59482333E-13
  0.137999997      -3.77081260E-13
  0.138500005      -2.79581019E-13
  0.138999999      -1.68787903E-13
  0.139500007      -4.69949803E-14
  0.140000001       8.30549144E-14
  0.140499994       2.18231412E-13
  0.141000003       3.55084153E-13
  0.141499996       4.89936000E-13
  0.142000005       6.18974978E-13
  0.142499998       7.38365261E-13
  0.143000007       8.44359088E-13
  0.143500000       9.33408949E-13
  0.143999994       1.00228604E-12
  0.144500002       1.04818714E-12
  0.144999996       1.06883458E-12
  0.145500004       1.06256616E-12
  0.145999998       1.02840880E-12
  0.146500006       9.66135375E-13
  0.147000000       8.76294480E-13
  0.147499993       7.60231559E-13
  0.148000002       6.20069642E-13
  0.148499995       4.58681324E-13
  0.149000004       2.79625363E-13
  0.149499997       8.70732455E-14
  0.150000006      -1.14295915E-13
  0.150500000      -3.19413983E-13
  0.150999993      -5.22954347E-13
  0.151500002      -7.19477212E-13
  0.151999995      -9.03576584E-13
  0.152500004      -1.07003859E-12
  0.152999997      -1.21398161E-12
  0.153500006      -1.33100790E-12
  0.153999999      -1.41732839E-12
  0.154499993      -1.46988509E-12
  0.155000001      -1.48643695E-12
  0.155499995      -1.46564119E-12
  0.156000003      -1.40710262E-12
  0.156499997      -1.31139197E-12
  0.157000005      -1.18004207E-12
  0.157499999      -1.01552707E-12
  0.158000007      -8.21197277E-13
  0.158500001      -6.01201597E-13
  0.158999994      -3.60386986E-13
  0.159500003      -1.04185568E-13
  0.159999996       1.61527597E-13
  0.160500005       4.30562460E-13
  0.160999998       6.96576314E-13
  0.161500007       9.53216998E-13
  0.162000000       1.19427005E-12
  0.162499994       1.41378944E-12
  0.163000003       1.60623522E-12
  0.163499996       1.76659024E-12
  0.164000005       1.89045784E-12
  0.164499998       1.97414199E-12
  0.165000007       2.01470264E-12
  0.165500000       2.01001520E-12
  0.165999994       1.95879749E-12
  0.166500002       1.86062125E-12
  0.166999996       1.71589761E-12
  0.167500004       1.52588066E-12
  0.167999998       1.29264297E-12
  0.168500006       1.01903219E-12
  0.169000000       7.08636220E-13
  0.169499993       3.65783142E-13
  0.170000002      -4.56054736E-15
  0.170499995      -3.96761400E-13
  0.171000004      -8.04587300E-13
  0.171499997      -1.22124088E-12
  0.172000006      -1.63940031E-12
  0.172499999      -2.05122139E-12
  0.172999993      -2.44842666E-12
  0.173500001      -2.82232180E-12
  0.173999995      -3.16387585E-12
  0.174500003      -3.46380867E-12
  0.174999997      -3.71267036E-12
  0.175500005      -3.90099628E-12
  0.175999999      -4.01941978E-12
  0.176499993      -4.05891380E-12
  0.177000001      -4.01098208E-12
  0.177499995      -3.86787173E-12
  0.178000003      -3.62294418E-12
  0.178499997      -3.27084800E-12
  0.179000005      -2.80797412E-12
  0.179499999      -2.23274806E-12
  0.180000007      -1.54586793E-12
  0.180500001      -7.50822527E-13
  0.180999994       1.46013694E-13
  0.181500003       1.13500301E-12
  0.181999996       2.20298541E-12
  0.182500005       3.33323538E-12
  0.182999998       4.50547282E-12
  0.183500007       5.69573425E-12
  0.184000000       6.87665810E-12
  0.184499994       8.01783553E-12
  0.185000002       9.08599498E-12
  0.185499996       1.00459216E-11
  0.186000004       1.08608877E-11
  0.186499998       1.14935813E-11
  0.187000006       1.19070656E-11
  0.187500000       1.20658050E-11
  0.187999994       1.19369948E-11
  0.188500002       1.14915126E-11
  0.188999996       1.07053507E-11
  0.189500004       9.56086946E-12
  0.189999998       8.04792084E-12
  0.190500006       6.16496004E-12
  0.191000000       3.92015847E-12
  0.191499993       1.33209589E-12
  0.192000002      -1.56956056E-12
  0.192499995      -4.74372451E-12
  0.193000004      -8.13770839E-12
  0.193499997      -1.16876942E-11
  0.194000006      -1.53190741E-11
  0.194499999      -1.89476004E-11
  0.194999993      -2.24804637E-11
  0.195500001      -2.58182174E-11
  0.195999995      -2.88564676E-11
  0.196500003      -3.14888393E-11
  0.196999997      -3.36082689E-11
  0.197500005      -3.51113999E-11
  0.197999999      -3.59006679E-11
  0.198500007      -3.58872168E-11
  0.199000001      -3.49947675E-11
  0.199499995      -3.31622993E-11
  0.200000003      -3.03459896E-11
  0.200499997      -2.65238873E-11
  0.201000005      -2.16967330E-11
  0.201499999      -1.58897860E-11
  0.202000007      -9.15478283E-12
  0.202500001      -1.57085651E-12
  0.202999994       6.75579948E-12
  0.203500003       1.56919217E-11
  0.203999996       2.50797352E-11
  0.204500005       3.47365331E-11
  0.204999998       4.44596859E-11
  0.205500007       5.40293713E-11
  0.206000000       6.32119357E-11
  0.206499994       7.17657600E-11
  0.207000002       7.94452074E-11
  0.207499996       8.60081867E-11
  0.208000004       9.12195597E-11
  0.208499998       9.48595716E-11
  0.209000006       9.67291663E-11
  0.209500000       9.66550243E-11
  0.209999993       9.44969727E-11
  0.210500002       9.01521358E-11
  0.210999995       8.35593886E-11
  0.211500004       7.47045828E-11
  0.211999997       6.36228639E-11
  0.212500006       5.03993965E-11
  0.213000000       3.51717995E-11
  0.213499993       1.81306498E-11
  0.214000002      -4.84087705E-13
  0.214499995      -2.03841232E-11
  0.215000004      -4.12380824E-11
  0.215499997      -6.26771690E-11
  0.216000006      -8.42982073E-11
  0.216499999      -1.05672554E-10
  0.216999993      -1.26356661E-10
  0.217500001      -1.45900667E-10
  0.217999995      -1.63850863E-10
  0.218500003      -1.79770240E-10
  0.218999997      -1.93239286E-10
  0.219500005      -2.03871864E-10
  0.219999999      -2.11321280E-10
  0.220500007      -2.15288676E-10
  0.221000001      -2.15534895E-10
  0.221499994      -2.11886231E-10
  0.222000003      -2.04236655E-10
  0.222499996      -1.92556762E-10
  0.223000005      -1.76895706E-10
  0.223499998      -1.57382316E-10
  0.224000007      -1.34222286E-10
  0.224500000      -1.07707170E-10
  0.224999994      -7.81931117E-11
  0.225500003      -4.61116735E-11
  0.225999996      -1.19504693E-11
  0.226500005       2.37410144E-11
  0.226999998       6.03763359E-11
  0.227500007       9.73322326E-11
  0.228000000       1.33964492E-10
  0.228499994       1.69620193E-10
  0.229000002       2.03650263E-10
  0.229499996       2.35419795E-10
  0.230000004       2.64327671E-10
  0.230499998       2.89808039E-10
  0.231000006       3.11355414E-10
  0.231500000       3.28522154E-10
  0.231999993       3.40943607E-10
  0.232500002       3.48325202E-10
  0.232999995       3.50473012E-10
  0.233500004       3.47279289E-10
  0.233999997       3.38738093E-10
  0.234500006       3.24940547E-10
  0.234999999       3.06075248E-10
  0.235499993       2.82422474E-10
  0.236000001       2.54363114E-10
  0.236499995       2.22344532E-10
  0.237000003       1.86910334E-10
  0.237499997       1.48652465E-10
  0.238000005       1.08229294E-10
  0.238499999       6.63309824E-11
  0.238999993       2.36826600E-11
  0.239500001      -1.89588172E-11
  0.239999995      -6.08715370E-11
  0.240500003      -1.01320619E-10
  0.240999997      -1.39613418E-10
  0.241500005      -1.75088069E-10
  0.241999999      -2.07141582E-10
  0.242500007      -2.35250347E-10
  0.243000001      -2.58956578E-10
  0.243499994      -2.77898510E-10
  0.244000003      -2.91811297E-10
  0.244499996      -3.00529074E-10
  0.245000005      -3.03996522E-10
  0.245499998      -3.02281700E-10
  0.246000007      -2.95538344E-10
  0.246500000      -2.84061524E-10
  0.246999994      -2.68227912E-10
  0.247500002      -2.48524007E-10
  0.247999996      -2.25528499E-10
  0.248500004      -1.99897335E-10
  0.248999998      -1.72373255E-10
  0.249500006      -1.43727530E-10
  0.250000000      -1.14793661E-10
  0.250499994      -8.64375099E-11
  0.250999987      -5.95004532E-11
  0.251500010      -3.48521316E-11
  0.252000004      -1.33017607E-11
  0.252499998       4.35662487E-12
  0.252999991       1.74407069E-11
  0.253500015       2.53051989E-11
  0.254000008       2.74229407E-11
  0.254500002       2.34146140E-11
  0.254999995       1.29736144E-11
  0.255499989      -3.99479191E-12
  0.256000012      -2.74821658E-11
  0.256500006      -5.72885628E-11
  0.256999999      -9.30449537E-11
  0.257499993      -1.34222800E-10
  0.257999986      -1.80120113E-10
  0.258500010      -2.29871372E-10
  0.259000003      -2.82425916E-10
  0.259499997      -3.36642852E-10
  0.259999990      -3.91184612E-10
  0.260500014      -4.44646014E-10
  0.261000007      -4.95512520E-10
  0.261500001      -5.42196177E-10
  0.261999995      -5.83104620E-10
  0.262499988      -6.16589113E-10
  0.263000011      -6.41089903E-10
  0.263500005      -6.55036414E-10
  0.263999999      -6.57006172E-10
  0.264499992      -6.45704601E-10
  0.264999986      -6.19960527E-10
  0.265500009      -5.78849579E-10
  0.266000003      -5.21671040E-10
  0.266499996      -4.47955700E-10
  0.266999990      -3.57575497E-10
  0.267500013      -2.50639870E-10
  0.268000007      -1.27649405E-10
  0.268500000       1.05623617E-11
  0.268999994       1.62838271E-10
  0.269499987       3.27683547E-10
  0.270000011       5.03271036E-10
  0.270500004       6.87419677E-10
  0.270999998       8.77649842E-10
  0.271499991       1.07122999E-09
  0.272000015       1.26524069E-09
  0.272500008       1.45643031E-09
  0.273000002       1.64160219E-09
  0.273499995       1.81732063E-09
  0.273999989       1.98013139E-09
  0.274500012       2.12677520E-09
  0.275000006       2.25391239E-09
  0.275500000       2.35842790E-09
  0.275999993       2.43743425E-09
  0.276499987       2.48832177E-09
  0.277000010       2.50901788E-09
  0.277500004       2.49755816E-09
  0.277999997       2.45268228E-09
  0.278499991       2.37358289E-09
  0.279000014       2.25994734E-09
  0.279500008       2.11209983E-09
  0.280000001       1.93102290E-09
  0.280499995       1.71810854E-09
  0.280999988       1.47553170E-09
  0.281500012       1.20594634E-09
  0.282000005       9.12519227E-10
  0.282499999       5.99035987E-10
  0.282999992       2.69501477E-10
  0.283499986      -7.13672524E-11
  0.284000009      -4.18815760E-10
  0.284500003      -7.67731101E-10
  0.284999996      -1.11295384E-09
  0.285499990      -1.44924039E-09
  0.286000013      -1.77142678E-09
  0.286500007      -2.07453499E-09
  0.287000000      -2.35379671E-09
  0.287499994      -2.60482547E-09
  0.287999988      -2.82378410E-09
  0.288500011      -3.00726866E-09
  0.289000005      -3.15258530E-09
  0.289499998      -3.25762928E-09
  0.289999992      -3.32116401E-09
  0.290499985      -3.34258443E-09
  0.291000009      -3.32228600E-09
  0.291500002      -3.26139626E-09
  0.291999996      -3.16174820E-09
  0.292499989      -3.02601944E-09
  0.293000013      -2.85777269E-09
  0.293500006      -2.66101119E-09
  0.294000000      -2.44054443E-09
  0.294499993      -2.20150453E-09
  0.294999987      -1.94957961E-09
  0.295500010      -1.69062297E-09
  0.296000004      -1.43081880E-09
  0.296499997      -1.17640020E-09
  0.296999991      -9.33161992E-10
  0.297500014      -7.07223113E-10
  0.298000008      -5.03822206E-10
  0.298500001      -3.28007177E-10
  0.298999995      -1.84183016E-10
  0.299499989      -7.57351543E-11
  0.300000012      -5.73694738E-12
  0.300500005       2.38325453E-11
  0.300999999       1.24890358E-11
  0.301499993      -3.99351108E-11
  0.301999986      -1.31987046E-10
  0.302500010      -2.62185940E-10
  0.303000003      -4.26610941E-10
  0.303499997      -6.21024565E-10
  0.303999990      -8.40583880E-10
  0.304500014      -1.07925391E-09
  0.305000007      -1.32989142E-09
  0.305500001      -1.58508318E-09
  0.305999994      -1.83721072E-09
  0.306499988      -2.07740802E-09
  0.307000011      -2.29787078E-09
  0.307500005      -2.48970489E-09
  0.307999998      -2.64503996E-09
  0.308499992      -2.75494538E-09
  0.308999985      -2.81278978E-09
  0.309500009      -2.81149526E-09
  0.310000002      -2.74544587E-09
  0.310499996      -2.60968691E-09
  0.310999990      -2.40003706E-09
  0.311500013      -2.11423257E-09
  0.312000006      -1.75112869E-09
  0.312500000      -1.31125566E-09
  0.312999994      -7.96057331E-10
  0.313499987      -2.09040021E-10
  0.314000010       4.45102344E-10
  0.314500004       1.16046517E-09
  0.314999998       1.92881089E-09
  0.315499991       2.74123635E-09
  0.316000015       3.58843244E-09
  0.316500008       4.45763249E-09
  0.317000002       5.33655165E-09
  0.317499995       6.21322105E-09
  0.317999989       7.07465508E-09
  0.318500012       7.90537413E-09
  0.319000006       8.69141914E-09
  0.319499999       9.41946166E-09
  0.319999993       1.00759046E-08
  0.320499986       1.06475415E-08
  0.321000010       1.11214540E-08
  0.321500003       1.14881242E-08
  0.321999997       1.17364438E-08
  0.322499990       1.18568639E-08
  0.323000014       1.18429773E-08
  0.323500007       1.16929879E-08
  0.324000001       1.13978986E-08
  0.324499995       1.09596270E-08
  0.324999988       1.03787059E-08
  0.325500011       9.65634417E-09
  0.326000005       8.79595063E-09
  0.326499999       7.80832110E-09
  0.326999992       6.70114542E-09
  0.327499986       5.48029355E-09
  0.328000009       4.16252766E-09
  0.328500003       2.76006751E-09
  0.328999996       1.28416344E-09
  0.329499990      -2.43037951E-10
  0.330000013      -1.80702653E-09
  0.330500007      -3.39290129E-09
  0.331000000      -4.97825470E-09
  0.331499994      -6.54939569E-09
  0.331999987      -8.08548162E-09
  0.332500011      -9.57509538E-09
  0.333000004      -1.09980816E-08
  0.333499998      -1.23364110E-08
  0.333999991      -1.35851090E-08
  0.334500015      -1.47309063E-08
  0.335000008      -1.57555196E-08
  0.335500002      -1.66646785E-08
  0.335999995      -1.74426287E-08
  0.336499989      -1.80903186E-08
  0.337000012      -1.86174258E-08
  0.337500006      -1.90167935E-08
  0.338000000      -1.92818810E-08
  0.338499993      -1.94501855E-08
  0.338999987      -1.95090486E-08
  0.339500010      -1.94767367E-08
  0.340000004      -1.93743492E-08
  0.340499997      -1.92190512E-08
  0.340999991      -1.90205700E-08
  0.341500014      -1.88114786E-08
  0.342000008      -1.86093345E-08
  0.342500001      -1.84295708E-08
  0.342999995      -1.83129316E-08
  0.343499988      -1.82698674E-08
  0.344000012      -1.83328623E-08
  0.344500005      -1.85091054E-08
  0.344999999      -1.88234459E-08
  0.345499992      -1.93129122E-08
  0.345999986      -1.99969872E-08
  0.346500009      -2.08664694E-08
  0.347000003      -2.19528378E-08
  0.347499996      -2.32680151E-08
  0.347999990      -2.48213858E-08
  0.348500013      -2.66040132E-08
  0.349000007      -2.86345205E-08
  0.349500000      -3.08904795E-08
  0.349999994      -3.33839658E-08
  0.350499988      -3.61001504E-08
  0.351000011      -3.90620549E-08
  0.351500005      -4.22050057E-08
  0.351999998      -4.55293083E-08
  0.352499992      -4.90428533E-08
  0.352999985      -5.26936361E-08
  0.353500009      -5.64731657E-08
  0.354000002      -6.03646058E-08
  0.354499996      -6.43380034E-08
  0.354999989      -6.83426862E-08
  0.355500013      -7.23999705E-08
  0.356000006      -7.64647154E-08
  0.356500000      -8.04990492E-08
  0.356999993      -8.45328003E-08
  0.357499987      -8.84953124E-08
  0.358000010      -9.23928667E-08
  0.358500004      -9.62027968E-08
  0.358999997      -9.99283856E-08
  0.359499991      -1.03545787E-07
  0.360000014      -1.07074676E-07
  0.360500008      -1.10505525E-07
  0.361000001      -1.13826694E-07
  0.361499995      -1.17084689E-07
  0.361999989      -1.20232102E-07
  0.362500012      -1.23355392E-07
  0.363000005      -1.26403577E-07
  0.363499999      -1.29417785E-07
  0.363999993      -1.32447482E-07
  0.364499986      -1.35479567E-07
  0.365000010      -1.38552195E-07
  0.365500003      -1.41674874E-07
  0.365999997      -1.44865510E-07
  0.366499990      -1.48249271E-07
  0.367000014      -1.51753426E-07
  0.367500007      -1.55457855E-07
  0.368000001      -1.59292227E-07
  0.368499994      -1.63369180E-07
  0.368999988      -1.67714362E-07
  0.369500011      -1.72342666E-07
  0.370000005      -1.77225473E-07
  0.370499998      -1.82350277E-07
  0.370999992      -1.87827354E-07
  0.371499985      -1.93629262E-07
  0.372000009      -1.99755434E-07
  0.372500002      -2.06199886E-07
  0.372999996      -2.13075879E-07
  0.373499990      -2.20265392E-07
  0.374000013      -2.27785108E-07
  0.374500006      -2.35519408E-07
  0.375000000      -2.43835444E-07
  0.375499994      -2.52504350E-07
  0.375999987      -2.61348475E-07
  0.376500010      -2.70643255E-07
  0.377000004      -2.80283700E-07
  0.377499998      -2.90658477E-07
  0.377999991      -3.00946255E-07
  0.378500015      -3.11883696E-07
  0.379000008      -3.23169246E-07
  0.379500002      -3.34928018E-07
  0.379999995      -3.47087393E-07
  0.380499989      -3.59672327E-07
  0.381000012      -3.72550488E-07
  0.381500006      -3.85808960E-07
  0.381999999      -3.99787439E-07
  0.382499993      -4.14082990E-07
  0.382999986      -4.28724292E-07
  0.383500010      -4.43935420E-07
  0.384000003      -4.59036841E-07
  0.384499997      -4.75425736E-07
  0.384999990      -4.91199501E-07
  0.385500014      -5.07717175E-07
  0.386000007      -5.24342113E-07
  0.386500001      -5.40778672E-07
  0.386999995      -5.56559542E-07
  0.387499988      -5.74300316E-07
  0.388000011      -5.91032517E-07
  0.388500005      -6.07252161E-07
  0.388999999      -6.23858000E-07
  0.389499992      -6.39271775E-07
  0.389999986      -6.54099040E-07
  0.390500009      -6.69300562E-07
  0.391000003      -6.82454129E-07
  0.391499996      -6.94575363E-07
  0.391999990      -7.07740810E-07
  0.392500013      -7.18407648E-07
  0.393000007      -7.28268617E-07
  0.393500000      -7.35769333E-07
  0.393999994      -7.44085355E-07
  0.394499987      -7.48033528E-07
  0.395000011      -7.52811445E-07
  0.395500004      -7.52229710E-07
  0.395999998      -7.53755614E-07
  0.396499991      -7.51390473E-07
  0.397000015      -7.47637728E-07
  0.397500008      -7.37776759E-07
  0.398000002      -7.30080615E-07
  0.398499995      -7.15980548E-07
  0.398999989      -7.01136628E-07
  0.399500012      -6.82139387E-07
  0.400000006      -6.60843909E-07
  0.400500000      -6.32925037E-07
  0.400999993      -6.04476952E-07
  0.401499987      -5.72810222E-07
  0.402000010      -5.34458195E-07
  0.402500004      -4.91213825E-07
  0.402999997      -4.40549854E-07
  0.403499991      -3.79734047E-07
  0.404000014      -3.18441408E-07
  0.404500008      -2.46686938E-07
  0.405000001      -1.71718597E-07
  0.405499995      -7.67612462E-08
  0.405999988       2.07710258E-08
  0.406500012       1.26333248E-07
  0.407000005       2.42667198E-07
  0.407499999       3.77864865E-07
  0.407999992       5.33189791E-07
  0.408499986       6.85367581E-07
  0.409000009       8.58631154E-07
  0.409500003       1.05789900E-06
  0.409999996       1.25550025E-06
  0.410499990       1.48241998E-06
  0.411000013       1.72692069E-06
  0.411500007       1.99614783E-06
  0.412000000       2.27890268E-06
  0.412499994       2.60482670E-06
  0.412999988       2.94515212E-06
  0.413500011       3.30582270E-06
  0.414000005       3.69915278E-06
  0.414499998       4.13285943E-06
  0.414999992       4.57805163E-06
  0.415499985       5.04170430E-06
  0.416000009       5.57132262E-06
  0.416500002       6.12667100E-06
  0.416999996       6.73136719E-06
  0.417499989       7.36491211E-06
  0.418000013       8.05846230E-06
  0.418500006       8.78213905E-06
  0.419000000       9.55507312E-06
  0.419499993       1.03872298E-05
  0.419999987       1.12463376E-05
  0.420500010       1.22007750E-05
  0.421000004       1.32174882E-05
  0.421499997       1.42811587E-05
  0.421999991       1.54181289E-05
  0.422500014       1.66435257E-05
  0.423000008       1.79307935E-05
  0.423500001       1.93249125E-05
  0.423999995       2.08084493E-05
  0.424499989       2.23753377E-05
  0.425000012       2.40296176E-05
  0.425500005       2.57604224E-05
  0.425999999       2.76901246E-05
  0.426499993       2.96855942E-05
  0.426999986       3.18056518E-05
  0.427500010       3.40591432E-05
  0.428000003       3.64723965E-05