   0.00000000       0.00000000    
   5.00000024E-04   0.00000000    
   1.00000005E-03   0.00000000    
   1.50000001E-03   0.00000000    
   2.00000009E-03   0.00000000    
   2.49999994E-03   0.00000000    
   3.00000003E-03   0.00000000    
   3.50000011E-03   0.00000000    
   4.00000019E-03   0.00000000    
   4.49999981E-03   0.00000000    
   4.99999989E-03  -8.30750634E-31
   5.49999997E-03  -6.51490867E-30
   6.00000005E-03  -3.27293889E-29
   6.50000013E-03  -1.09085238E-28
   7.00000022E-03  -1.75622470E-28
   7.49999983E-03   5.82787364E-28
   8.00000038E-03   6.53278210E-27
   8.50000046E-03   3.50646700E-26
   8.99999961E-03   1.44284225E-25
   9.49999969E-03   5.05431021E-25
   9.99999978E-03   1.57586661E-24
   1.04999999E-02   4.48184302E-24
   1.09999999E-02   1.18108002E-23
   1.15000000E-02   2.91567976E-23
   1.20000001E-02   6.79764156E-23
   1.25000002E-02   1.50608516E-22
   1.30000003E-02   3.18690163E-22
   1.35000004E-02   6.46640972E-22
   1.40000004E-02   1.26231598E-21
   1.44999996E-02   2.37724923E-21
   1.49999997E-02   4.32887041E-21
   1.54999997E-02   7.63647002E-21
   1.60000008E-02   1.30709974E-20
   1.64999999E-02   2.17357102E-20
   1.70000009E-02   3.51493308E-20
   1.75000001E-02   5.53158358E-20
   1.79999992E-02   8.47538820E-20
   1.85000002E-02   1.26444961E-19
   1.89999994E-02   1.83642458E-19
   1.95000004E-02   2.59465801E-19
   1.99999996E-02   3.56180560E-19
   2.05000006E-02   4.74059432E-19
   2.09999997E-02   6.09689342E-19
   2.15000007E-02   7.53629987E-19
   2.19999999E-02   8.87302478E-19
   2.25000009E-02   9.79081785E-19
   2.30000000E-02   9.79641994E-19
   2.34999992E-02   8.16702095E-19
   2.40000002E-02   3.89533361E-19
   2.44999994E-02  -4.36189553E-19
   2.50000004E-02  -1.83238538E-18
   2.54999995E-02  -4.01020594E-18
   2.60000005E-02  -7.21794742E-18
   2.64999997E-02  -1.17333932E-17
   2.70000007E-02  -1.78486534E-17
   2.74999999E-02  -2.58453774E-17
   2.80000009E-02  -3.59583486E-17
   2.85000000E-02  -4.83257079E-17
   2.89999992E-02  -6.29245755E-17
   2.95000002E-02  -7.94926458E-17
   2.99999993E-02  -9.74360660E-17
   3.05000003E-02  -1.15728351E-16
   3.09999995E-02  -1.32804708E-16
   3.15000005E-02  -1.46461512E-16
   3.20000015E-02  -1.53770732E-16
   3.24999988E-02  -1.51025869E-16
   3.29999998E-02  -1.33735266E-16
   3.35000008E-02  -9.66816773E-17
   3.40000018E-02  -3.40720856E-17
   3.44999991E-02   6.02051167E-17
   3.50000001E-02   1.92195998E-16
   3.55000012E-02   3.67353663E-16
   3.59999985E-02   5.89860933E-16
   3.64999995E-02   8.61808643E-16
   3.70000005E-02   1.18224115E-15
   3.75000015E-02   1.54610141E-15
   3.79999988E-02   1.94313382E-15
   3.84999998E-02   2.35678828E-15
   3.90000008E-02   2.76326478E-15
   3.95000018E-02   3.13074770E-15
   3.99999991E-02   3.41902223E-15
   4.05000001E-02   3.57953498E-15
   4.10000011E-02   3.55612892E-15
   4.14999984E-02   3.28651663E-15
   4.19999994E-02   2.70466768E-15
   4.25000004E-02   1.74416779E-15
   4.30000015E-02   3.42623715E-16
   4.34999987E-02  -1.55292427E-15
   4.39999998E-02  -3.97964327E-15
   4.45000008E-02  -6.95179718E-15
   4.50000018E-02  -1.04531387E-14
   4.54999991E-02  -1.44292317E-14
   4.60000001E-02  -1.87800859E-14
   4.65000011E-02  -2.33538385E-14
   4.69999984E-02  -2.79419432E-14
   4.74999994E-02  -3.22767969E-14
   4.80000004E-02  -3.60323242E-14
   4.85000014E-02  -3.88284850E-14
   4.89999987E-02  -4.02399705E-14
   4.94999997E-02  -3.98100064E-14
   5.00000007E-02  -3.70693669E-14
   5.05000018E-02  -3.15605289E-14
   5.09999990E-02  -2.28671977E-14
   5.15000001E-02  -1.06473981E-14
   5.20000011E-02   5.32884436E-15
   5.24999984E-02   2.51411085E-14
   5.29999994E-02   4.86792376E-14
   5.35000004E-02   7.56066894E-14
   5.40000014E-02   1.05328425E-13
   5.44999987E-02   1.36966583E-13
   5.49999997E-02   1.69346294E-13
   5.55000007E-02   2.00994982E-13
   5.60000017E-02   2.30158123E-13
   5.64999990E-02   2.54832640E-13
   5.70000000E-02   2.72819500E-13
   5.75000010E-02   2.81799540E-13
   5.79999983E-02   2.79427740E-13
   5.84999993E-02   2.63446572E-13
   5.90000004E-02   2.31815516E-13
   5.95000014E-02   1.82857486E-13
   5.99999987E-02   1.15404512E-13
   6.04999997E-02   2.89524975E-14
   6.10000007E-02  -7.61963057E-14
   6.15000017E-02  -1.98805992E-13
   6.19999990E-02  -3.36601949E-13
   6.25000000E-02  -4.86202387E-13
   6.30000010E-02  -6.43090670E-13
   6.35000020E-02  -8.01639245E-13
   6.40000030E-02  -9.55190788E-13
   6.44999966E-02  -1.09620028E-12
   6.49999976E-02  -1.21644220E-12
   6.54999986E-02  -1.30727894E-12
   6.59999996E-02  -1.35998786E-12
   6.65000007E-02  -1.36614331E-12
   6.70000017E-02  -1.31803065E-12
   6.75000027E-02  -1.20909706E-12
   6.80000037E-02  -1.03439360E-12
   6.84999973E-02  -7.91021220E-13
   6.89999983E-02  -4.78530193E-13
   6.94999993E-02  -9.92730813E-14
   7.00000003E-02   3.41335873E-13
   7.05000013E-02   8.34661387E-13
   7.10000023E-02   1.36879548E-12
   7.15000033E-02   1.92865840E-12
   7.19999969E-02   2.49624084E-12
   7.24999979E-02   3.05099891E-12
   7.29999989E-02   3.57039723E-12
   7.34999999E-02   4.03059964E-12
   7.40000010E-02   4.40727836E-12
   7.45000020E-02   4.67652306E-12
   7.50000030E-02   4.81582916E-12
   7.54999965E-02   4.80511377E-12
   7.59999976E-02   4.62772572E-12
   7.64999986E-02   4.27139357E-12
   7.69999996E-02   3.72911164E-12
   7.75000006E-02   2.99983996E-12
   7.80000016E-02   2.08907219E-12
   7.85000026E-02   1.00916335E-12
   7.90000036E-02  -2.20611222E-13
   7.94999972E-02  -1.57419986E-12
   7.99999982E-02  -3.01919449E-12
   8.04999992E-02  -4.51759203E-12
   8.10000002E-02  -6.02668176E-12
   8.15000013E-02  -7.50025216E-12
   8.20000023E-02  -8.88991571E-12
   8.25000033E-02  -1.01465954E-11
   8.29999968E-02  -1.12220693E-11
   8.34999979E-02  -1.20705338E-11
   8.39999989E-02  -1.26501335E-11
   8.44999999E-02  -1.29243395E-11
   8.50000009E-02  -1.28632357E-11
   8.55000019E-02  -1.24445254E-11
   8.60000029E-02  -1.16543069E-11
   8.64999965E-02  -1.04876507E-11
   8.69999975E-02  -8.94879570E-12
   8.74999985E-02  -7.05118169E-12
   8.79999995E-02  -4.81710245E-12
   8.85000005E-02  -2.27735040E-12
   8.90000015E-02   5.29460319E-13
   8.95000026E-02   3.55759974E-12
   9.00000036E-02   6.75498633E-12
   9.04999971E-02   1.00639020E-11
   9.09999982E-02   1.34216622E-11
   9.14999992E-02   1.67611671E-11
   9.20000002E-02   2.00113277E-11
   9.25000012E-02   2.30973365E-11
   9.30000022E-02   2.59408467E-11
   9.35000032E-02   2.84600763E-11
   9.39999968E-02   3.05699493E-11
   9.44999978E-02   3.21823089E-11
   9.49999988E-02   3.32064445E-11
   9.54999998E-02   3.35498782E-11
   9.60000008E-02   3.31197743E-11
   9.65000018E-02   3.18247893E-11
   9.70000029E-02   2.95780136E-11
   9.74999964E-02   2.63002953E-11
   9.79999974E-02   2.19248144E-11
   9.84999985E-02   1.64022806E-11
   9.89999995E-02   9.70705807E-12
   9.95000005E-02   1.84368840E-12
  0.100000001      -7.14592318E-12
  0.100500003      -1.71755284E-11
  0.101000004      -2.81076187E-11
  0.101499997      -3.97475351E-11
  0.101999998      -5.18387451E-11
  0.102499999      -6.40598338E-11
  0.103000000      -7.60242633E-11
  0.103500001      -8.72825978E-11
  0.104000002      -9.73285202E-11
  0.104500003      -1.05608508E-10
  0.104999997      -1.11535531E-10
  0.105499998      -1.14507154E-10
  0.105999999      -1.13927645E-10
  0.106500000      -1.09233893E-10
  0.107000001      -9.99248254E-11
  0.107500002      -8.55932755E-11
  0.108000003      -6.59592311E-11
  0.108499996      -4.09038255E-11
  0.108999997      -1.05013654E-11
  0.109499998       2.49503161E-11
  0.109999999       6.49057474E-11
  0.110500000       1.08552216E-10
  0.111000001       1.54800672E-10
  0.111500002       2.02284092E-10
  0.112000003       2.49369858E-10
  0.112499997       2.94183039E-10
  0.112999998       3.34644396E-10
  0.113499999       3.68521658E-10
  0.114000000       3.93495236E-10
  0.114500001       4.07236689E-10
  0.115000002       4.07499701E-10
  0.115500003       3.92219146E-10
  0.115999997       3.59618335E-10
  0.116499998       3.08319675E-10
  0.116999999       2.37454251E-10
  0.117500000       1.46767196E-10
  0.118000001       3.67116788E-11
  0.118500002      -9.14689227E-11
  0.119000003      -2.35681252E-10
  0.119499996      -3.92945260E-10
  0.119999997      -5.59386593E-10
  0.120499998      -7.30262406E-10
  0.120999999      -9.00022334E-10
  0.121500000      -1.06240705E-09
  0.122000001      -1.21058441E-09
  0.122500002      -1.33732525E-09
  0.123000003      -1.43521239E-09
  0.123499997      -1.49688217E-09
  0.123999998      -1.51529322E-09
  0.124499999      -1.48400980E-09
  0.125000000      -1.39750733E-09
  0.125499994      -1.25146238E-09
  0.126000002      -1.04304909E-09
  0.126499996      -7.71206987E-10
  0.127000004      -4.36882142E-10
  0.127499998      -4.32158372E-11
  0.128000006       4.04313888E-10
  0.128500000       8.97819374E-10
  0.128999993       1.42700118E-09
  0.129500002       1.97923278E-09
  0.129999995       2.53972487E-09
  0.130500004       3.09178327E-09
  0.130999997       3.61715324E-09
  0.131500006       4.09644452E-09
  0.131999999       4.50963888E-09
  0.132499993       4.83666174E-09
  0.133000001       5.05800646E-09
  0.133499995       5.15540632E-09
  0.134000003       5.11250819E-09
  0.134499997       4.91556973E-09
  0.135000005       4.55410376E-09
  0.135499999       4.02150580E-09
  0.136000007       3.31559247E-09
  0.136500001       2.43905052E-09
  0.136999995       1.39979472E-09
  0.137500003       2.11138995E-10
  0.137999997      -1.10810083E-09
  0.138500005      -2.53375054E-09
  0.138999999      -4.03651912E-09
  0.139500007      -5.58245761E-09
  0.140000001      -7.13356796E-09
  0.140499994      -8.64857963E-09
  0.141000003      -1.00838671E-08
  0.141499996      -1.13945138E-08
  0.142000005      -1.25354749E-08
  0.142499998      -1.34628078E-08
  0.143000007      -1.41349759E-08
  0.143500000      -1.45141348E-08
  0.143999994      -1.45674068E-08
  0.144500002      -1.42681014E-08
  0.144999996      -1.35968090E-08
  0.145500004      -1.25423529E-08
  0.145999998      -1.11026095E-08
  0.146500006      -9.28508204E-09
  0.147000000      -7.10720860E-09
  0.147499993      -4.59654270E-09
  0.148000002      -1.79049464E-09
  0.148499995       1.26403521E-09
  0.149000004       4.51144411E-09
  0.149499997       7.88833265E-09
  0.150000006       1.13247793E-08
  0.150500000       1.47457602E-08
  0.150999993       1.80728108E-08
  0.151500002       2.12258069E-08
  0.151999995       2.41248586E-08
  0.152500004       2.66922573E-08
  0.152999997       2.88544868E-08
  0.153500006       3.05441219E-08
  0.153999999       3.17016884E-08
  0.154499993       3.22773630E-08
  0.155000001       3.22324745E-08
  0.155499995       3.15407824E-08
  0.156000003       3.01894936E-08
  0.156499997       2.81799704E-08
  0.157000005       2.55280863E-08
  0.157499999       2.22643131E-08
  0.158000007       1.84333739E-08
  0.158500001       1.40936400E-08
  0.158999994       9.31610877E-09
  0.159500003       4.18314228E-09
  0.159999996      -1.21312005E-09
  0.160500005      -6.77261891E-09
  0.160999998      -1.23893864E-08
  0.161500007      -1.79538482E-08
  0.162000000      -2.33550530E-08
  0.162499994      -2.84831660E-08
  0.163000003      -3.32318812E-08
  0.163499996      -3.75008824E-08
  0.164000005      -4.11981276E-08
  0.164499998      -4.42420074E-08
  0.165000007      -4.65635281E-08
  0.165500000      -4.81079745E-08
  0.165999994      -4.88365686E-08
  0.166500002      -4.87278022E-08
  0.166999996      -4.77782862E-08
  0.167500004      -4.60035814E-08
  0.167999998      -4.34383622E-08
  0.168500006      -4.01364275E-08
  0.169000000      -3.61702561E-08
  0.169499993      -3.16301900E-08
  0.170000002      -2.66232636E-08
  0.170499995      -2.12716138E-08
  0.171000004      -1.57105156E-08
  0.171499997      -1.00861204E-08
  0.172000006      -4.55266047E-09
  0.172499999       7.30429384E-10
  0.172999993       5.60192692E-09
  0.173500001       9.90247617E-09
  0.173999995       1.34784539E-08
  0.174500003       1.61860818E-08
  0.174999997       1.78957968E-08
  0.175500005       1.84965234E-08
  0.175999999       1.79002448E-08
  0.176499993       1.60464282E-08
  0.177000001       1.29061801E-08
  0.177499995       8.48650838E-09
  0.178000003       2.83394264E-09
  0.178499997      -3.96223898E-09
  0.179000005      -1.17673018E-08
  0.179499999      -2.03991242E-08
  0.180000007      -2.96271434E-08
  0.180500001      -3.91722317E-08
  0.180999994      -4.87078893E-08
  0.181500003      -5.78626818E-08
  0.181999996      -6.62237341E-08
  0.182500005      -7.33421572E-08
  0.182999998      -7.87394967E-08
  0.183500007      -8.19166530E-08
  0.184000000      -8.23628028E-08
  0.184499994      -7.95675703E-08
  0.185000002      -7.30331990E-08
  0.185499996      -6.22892102E-08
  0.186000004      -4.69068233E-08
  0.186499998      -2.65157780E-08
  0.187000006      -8.19763479E-10
  0.187500000       3.03858165E-08
  0.187999994       6.71980160E-08
  0.188500002       1.09590239E-07
  0.188999996       1.57397452E-07
  0.189500004       2.10302218E-07
  0.189999998       2.67825044E-07
  0.190500006       3.29313991E-07
  0.191000000       3.93940184E-07
  0.191499993       4.60695048E-07
  0.192000002       5.28392604E-07
  0.192499995       5.95674635E-07
  0.193000004       6.61021943E-07
  0.193499997       7.22768675E-07
  0.194000006       7.79123127E-07
  0.194499999       8.28192640E-07
  0.194999993       8.68012364E-07
  0.195500001       8.96578968E-07
  0.195999995       9.11889231E-07
  0.196500003       9.11982397E-07
  0.196999997       8.94982122E-07
  0.197500005       8.59145473E-07
  0.197999999       8.02908971E-07
  0.198500007       7.24937081E-07
  0.199000001       6.24170468E-07
  0.199499995       4.99873238E-07
  0.200000003       3.51669371E-07
  0.200499997       1.79591282E-07
  0.201000005      -1.58925051E-08
  0.201499999      -2.33851154E-07
  0.202000007      -4.72864286E-07
  0.202500001      -7.31015007E-07
  0.202999994      -1.00588488E-06
  0.203500003      -1.29455498E-06
  0.203999996      -1.59363196E-06
  0.204500005      -1.89925470E-06
  0.204999998      -2.20714742E-06
  0.205500007      -2.51265919E-06
  0.206000000      -2.81081157E-06
  0.206499994      -3.09636948E-06
  0.207000002      -3.36391008E-06
  0.207499996      -3.60790250E-06
  0.208000004      -3.82278404E-06
  0.208499998      -4.00305908E-06
  0.209000006      -4.14338410E-06
  0.209500000      -4.23865686E-06
  0.209999993      -4.28411568E-06
  0.210500002      -4.27542273E-06
  0.210999995      -4.20874903E-06
  0.211500004      -4.08085771E-06
  0.211999997      -3.88918170E-06
  0.212500006      -3.63186791E-06
  0.213000000      -3.30785588E-06
  0.213499993      -2.91690299E-06
  0.214000002      -2.45962997E-06
  0.214499995      -1.93752544E-06
  0.215000004      -1.35295716E-06
  0.215499997      -7.09173548E-07
  0.216000006      -1.02659570E-08
  0.216499999       7.38839219E-07
  0.216999993       1.53245367E-06
  0.217500001       2.36415895E-06
  0.217999995       3.22687242E-06
  0.218500003       4.11293922E-06
  0.218999997       5.01418435E-06
  0.219500005       5.92201604E-06
  0.219999999       6.82750760E-06
  0.220500007       7.72147905E-06
  0.221000001       8.59459124E-06
  0.221499994       9.43744453E-06
  0.222000003       1.02406484E-05
  0.222499996       1.09949015E-05
  0.223000005       1.16910724E-05
  0.223499998       1.23202763E-05
  0.224000007       1.28738993E-05
  0.224500000       1.33437052E-05
  0.224999994       1.37218231E-05
  0.225500003       1.40008324E-05
  0.225999996       1.41737610E-05
  0.226500005       1.42341278E-05
  0.226999998       1.41759510E-05
  0.227500007       1.39937665E-05
  0.228000000       1.36826329E-05
  0.228499994       1.32381529E-05
  0.229000002       1.26564701E-05
  0.229499996       1.19342840E-05
  0.230000004       1.10688734E-05
  0.230499998       1.00580955E-05
  0.231000006       8.90045430E-06
  0.231500000       7.59506793E-06
  0.231999993       6.14176815E-06
  0.232500002       4.54114979E-06
  0.232999995       2.79460642E-06
  0.233500004       9.04400736E-07
  0.233999997      -1.12621910E-06
  0.234500006      -3.29294971E-06
  0.234999999      -5.59034561E-06
  0.235499993      -8.01167516E-06
  0.236000001      -1.05488480E-05
  0.236499995      -1.31922543E-05
  0.237000003      -1.59307147E-05
  0.237499997      -1.87513324E-05
  0.238000005      -2.16393564E-05
  0.238499999      -2.45781448E-05
  0.238999993      -2.75490456E-05
  0.239500001      -3.05314061E-05
  0.239999995      -3.35024088E-05
  0.240500003      -3.64371226E-05
  0.240999997      -3.93084920E-05
  0.241500005      -4.20874785E-05
  0.241999999      -4.47429629E-05
  0.242500007      -4.72419561E-05
  0.243000001      -4.95498280E-05
  0.243499994      -5.16303044E-05
  0.244000003      -5.34459650E-05
  0.244499996      -5.49582583E-05
  0.245000005      -5.61280976E-05
  0.245499998      -5.69159456E-05
  0.246000007      -5.72825593E-05
  0.246500000      -5.71890923E-05
  0.246999994      -5.65978553E-05
  0.247500002      -5.54727558E-05
  0.247999996      -5.37797787E-05
  0.248500004      -5.14876701E-05
  0.248999998      -4.85684322E-05
  0.249500006      -4.49980216E-05
  0.250000000      -4.07568696E-05
  0.250499994      -3.58305151E-05
  0.250999987      -3.02101653E-05
  0.251500010      -2.38933462E-05
  0.252000004      -1.68843235E-05
  0.252499998      -9.19460217E-06
  0.252999991      -8.43496082E-07
  0.253500015       8.14169471E-06
  0.254000008       1.77253187E-05
  0.254500002       2.78628850E-05
  0.254999995       3.85014246E-05
  0.255499989       4.95789282E-05
  0.256000012       6.10247807E-05
  0.256500006       7.27596052E-05
  0.256999999       8.46959447E-05
  0.257499993       9.67379892E-05
  0.257999986       1.08783046E-04
  0.258500010       1.20721081E-04
  0.259000003       1.32436311E-04
  0.259499997       1.43807483E-04
  0.259999990       1.54709182E-04
  0.260500014       1.65012927E-04
  0.261000007       1.74587869E-04
  0.261500001       1.83302473E-04
  0.261999995       1.91025887E-04
  0.262499988       1.97628848E-04
  0.263000011       2.02985699E-04
  0.263500005       2.06975354E-04
  0.263999999       2.09483027E-04
  0.264499992       2.10401835E-04
  0.264999986       2.09633668E-04
  0.265500009       2.07091492E-04
  0.266000003       2.02699739E-04
  0.266499996       1.96396504E-04
  0.266999990       1.88134043E-04
  0.267500013       1.77879876E-04
  0.268000007       1.65618185E-04
  0.268500000       1.51350308E-04
  0.268999994       1.35095223E-04
  0.269499987       1.16890049E-04
  0.270000011       9.67906963E-05
  0.270500004       7.48715174E-05
  0.270999998       5.12251390E-05
  0.271499991       2.59626431E-05
  0.272000015      -7.87752583E-07
  0.272500008      -2.88801530E-05
  0.273000002      -5.81534769E-05
  0.273499995      -8.84313631E-05
  0.273999989      -1.19523400E-04
  0.274500012      -1.51227679E-04
  0.275000006      -1.83330805E-04
  0.275500000      -2.15610344E-04
  0.275999993      -2.47836841E-04
  0.276499987      -2.79774744E-04
  0.277000010      -3.11185664E-04
  0.277500004      -3.41828010E-04
  0.277999997      -3.71461996E-04
  0.278499991      -3.99848534E-04
  0.279000014      -4.26752900E-04
  0.279500008      -4.51945903E-04
  0.280000001      -4.75206063E-04
  0.280499995      -4.96320368E-04
  0.280999988      -5.15087042E-04
  0.281500012      -5.31315687E-04
  0.282000005      -5.44829469E-04
  0.282499999      -5.55464881E-04
  0.282999992      -5.63074893E-04
  0.283499986      -5.67528070E-04
  0.284000009      -5.68709511E-04
  0.284500003      -5.66522067E-04
  0.284999996      -5.60885586E-04
  0.285499990      -5.51738602E-04
  0.286000013      -5.39037341E-04
  0.286500007      -5.22755960E-04
  0.287000000      -5.02887357E-04
  0.287499994      -4.79441951E-04
  0.287999988      -4.52448090E-04
  0.288500011      -4.21951583E-04
  0.289000005      -3.88015789E-04
  0.289499998      -3.50720948E-04
  0.289999992      -3.10164294E-04
  0.290499985      -2.66459509E-04
  0.291000009      -2.19736321E-04
  0.291500002      -1.70140411E-04
  0.291999996      -1.17833937E-04
  0.292499989      -6.29941933E-05
  0.293000013      -5.81364566E-06
  0.293500006       5.34994797E-05
  0.294000000       1.14722061E-04
  0.294499993       1.77616952E-04
  0.294999987       2.41930436E-04
  0.295500010       3.07395589E-04
  0.296000004       3.73732240E-04
  0.296499997       4.40645672E-04
  0.296999991       5.07826509E-04
  0.297500014       5.74955018E-04
  0.298000008       6.41698600E-04
  0.298500001       7.07713829E-04
  0.298999995       7.72647676E-04
  0.299499989       8.36136460E-04
  0.300000012       8.97812715E-04
  0.300500005       9.57301003E-04
  0.300999999       1.01422297E-03
  0.301499993       1.06819777E-03
  0.301999986       1.11884554E-03
  0.302500010       1.16579235E-03
  0.303000003       1.20866753E-03
  0.303499997       1.24710740E-03
  0.303999990       1.28076132E-03
  0.304500014       1.30929740E-03
  0.305000007       1.33239501E-03
  0.305500001       1.34975917E-03
  0.305999994       1.36111456E-03
  0.306499988       1.36621553E-03
  0.307000011       1.36485079E-03
  0.307500005       1.35683478E-03
  0.307999998       1.34202570E-03
  0.308499992       1.32031145E-03
  0.308999985       1.29162846E-03
  0.309500009       1.25594880E-03
  0.310000002       1.21329934E-03
  0.310499996       1.16373575E-03
  0.310999990       1.10737886E-03
  0.311500013       1.04437838E-03
  0.312000006       9.74941766E-04
  0.312500000       8.99321283E-04
  0.312999994       8.17807566E-04
  0.313499987       7.30738393E-04
  0.314000010       6.38496189E-04
  0.314500004       5.41492016E-04
  0.314999998       4.40180447E-04
  0.315499991       3.35048244E-04
  0.316000015       2.26604709E-04
  0.316500008       1.15397990E-04
  0.317000002       1.97710574E-06
  0.317499995      -1.13073351E-04
  0.317999989      -2.29173878E-04
  0.318500012      -3.45722161E-04
  0.319000006      -4.62124211E-04
  0.319499999      -5.77777158E-04
  0.319999993      -6.92094793E-04
  0.320499986      -8.04490701E-04
  0.321000010      -9.14406672E-04
  0.321500003      -1.02129171E-03
  0.321999997      -1.12460391E-03
  0.322499990      -1.22384413E-03
  0.323000014      -1.31852250E-03
  0.323500007      -1.40819221E-03
  0.324000001      -1.49241975E-03
  0.324499995      -1.57080078E-03
  0.324999988      -1.64296129E-03
  0.325500011      -1.70855154E-03
  0.326000005      -1.76724512E-03
  0.326499999      -1.81873131E-03
  0.326999992      -1.86277565E-03
  0.327499986      -1.89904193E-03
  0.328000009      -1.92731433E-03
  0.328500003      -1.94733532E-03
  0.328999996      -1.95886241E-03
  0.329499990      -1.96166034E-03
  0.330000013      -1.95546309E-03
  0.330500007      -1.94000639E-03
  0.331000000      -1.91502506E-03
  0.331499994      -1.88018382E-03
  0.331999987      -1.83516776E-03
  0.332500011      -1.77957932E-03
  0.333000004      -1.71302992E-03
  0.333499998      -1.63505739E-03
  0.333999991      -1.54518825E-03
  0.334500015      -1.44279923E-03
  0.335000008      -1.32733560E-03
  0.335500002      -1.19811774E-03
  0.335999995      -1.05439848E-03
  0.336499989      -8.95444362E-04
  0.337000012      -7.20310316E-04
  0.337500006      -5.28204197E-04
  0.338000000      -3.18155362E-04
  0.338499993      -8.90405136E-05
  0.338999987       1.60079871E-04
  0.339500010       4.30362736E-04
  0.340000004       7.22968078E-04
  0.340499997       1.03910058E-03
  0.340999991       1.37998071E-03
  0.341500014       1.74684869E-03
  0.342000008       2.14096298E-03
  0.342500001       2.56353221E-03
  0.342999995       3.01595591E-03
  0.343499988       3.49938544E-03
  0.344000012       4.01517795E-03
  0.344500005       4.56450973E-03
  0.344999999       5.14849788E-03
  0.345499992       5.76849049E-03
  0.345999986       6.42557954E-03
  0.346500009       7.12078903E-03
  0.347000003       7.85514154E-03
  0.347499996       8.62968434E-03
  0.347999990       9.44530591E-03
  0.348500013       1.03028193E-02
  0.349000007       1.12031568E-02
  0.349500000       1.21468417E-02
  0.349999994       1.31347151E-02
  0.350499988       1.41673032E-02
  0.351000011       1.52452374E-02
  0.351500005       1.63690504E-02
  0.351999998       1.75390691E-02
  0.352499992       1.87558103E-02
  0.352999985       2.00196579E-02
  0.353500009       2.13309843E-02
  0.354000002       2.26900280E-02
  0.354499996       2.40973942E-02
  0.354999989       2.55530346E-02
  0.355500013       2.70577855E-02
  0.356000006       2.86116935E-02
  0.356500000       3.02152988E-02
  0.356999993       3.18691880E-02
  0.357499987       3.35736908E-02
  0.358000010       3.53294536E-02
  0.358500004       3.71373110E-02
  0.358999997       3.89978401E-02
  0.359499991       4.09119800E-02
  0.360000014       4.28807661E-02
  0.360500008       4.49053198E-02
  0.361000001       4.69866805E-02
  0.361499995       4.91263457E-02
  0.361999989       5.13256006E-02
  0.362500012       5.35862073E-02
  0.363000005       5.59099093E-02
  0.363499999       5.82983941E-02
  0.363999993       6.07540458E-02
  0.364499986       6.32787570E-02
  0.365000010       6.58750981E-02
  0.365500003       6.85453564E-02
  0.365999997       7.12920651E-02
  0.366499990       7.41190612E-02
  0.367000014       7.70282969E-02
  0.367500007       8.00231472E-02
  0.368000001       8.31068307E-02
  0.368499994       8.62827227E-02
  0.368999988       8.95549506E-02
  0.369500011       9.29268822E-02
  0.370000005       9.64025334E-02
  0.370499998       9.99850556E-02
  0.370999992      0.103679828    
  0.371499985      0.107490502    
  0.372000009      0.111422189    
  0.372500002      0.115478970    
  0.372999996      0.119666234    
  0.373499990      0.123988248    
  0.374000013      0.128449976    
  0.374500006      0.133056164    
  0.375000000      0.137812883    
  0.375499994      0.142725557    
  0.375999987      0.147798523    
  0.376500010      0.153038755    
  0.377000004      0.158449471    
  0.377499998      0.164039865    
  0.377999991      0.169812083    
  0.378500015      0.175773948    
  0.379000008      0.181928322    
  0.379500002      0.188283622    
  0.379999995      0.194844469    
  0.380499989      0.201612398    
  0.381000012      0.208597213    
  0.381500006      0.215800434    
  0.381999999      0.223228678    
  0.382499993      0.230881780    
  0.382999986      0.238768533    
  0.383500010      0.246886298    
  0.384000003      0.255241513    
  0.384499997      0.263835669    
  0.384999990      0.272665679    
  0.385500014      0.281736851    
  0.386000007      0.291042596    
  0.386500001      0.300585330    
  0.386999995      0.310356498    
  0.387499988      0.320362568    
  0.388000011      0.330590397    
  0.388500005      0.341028422    
  0.388999999      0.351673454    
  0.389499992      0.362522155    
  0.389999986      0.373543143    
  0.390500009      0.384739429    
  0.391000003      0.396080524    
  0.391499996      0.407556564    
  0.391999990      0.419144899    
  0.392500013      0.430822879    
  0.393000007      0.442556232    
  0.393500000      0.454312056    
  0.393999994      0.466071665    
  0.394499987      0.477778792    
  0.395000011      0.489397615    
  0.395500004      0.500877380    
  0.395999998      0.512195110    
  0.396499991      0.523263752    
  0.397000015      0.534045756    
  0.397500008      0.544449091    
  0.398000002      0.554425776    
  0.398499995      0.563887894    
  0.398999989      0.572763443    
  0.399500012      0.580956936    
  0.400000006      0.588331342    
  0.400500000      0.594819546    
  0.400999993      0.600302339    
  0.401499987      0.604691029    
  0.402000010      0.607751727    
  0.402500004      0.609436452    
  0.402999997      0.609536648    
  0.403499991      0.607864976    
  0.404000014      0.604324341    
  0.404500008      0.598651171    
  0.405000001      0.590669692    
  0.405499995      0.580157638    
  0.405999988      0.566829681    
  0.406500012      0.550512791    
  0.407000005      0.530869901    
  0.407499999      0.507667422    
  0.407999992      0.480461597    
  0.408499986      0.449136496    
  0.409000009      0.413196057    
  0.409500003      0.372182399    
  0.409999996      0.325892746    
  0.410499990      0.273738950    
  0.411000013      0.215357333    
  0.411500007      0.150247931    
  0.412000000       7.78266937E-02
  0.412499994      -2.46324530E-03
  0.412999988      -9.11813229E-02
  0.413500011     -0.188806072    
  0.414000005     -0.296210766    
  0.414499998     -0.414102077    
  0.414999992     -0.543021858    
  0.415499985     -0.683875263    
  0.416000009     -0.837563038    
  0.416500002      -1.00498652    
  0.416999996      -1.18696332    
  0.417499989      -1.38462651    
  0.418000013      -1.59898078    
  0.418500006      -1.83114505    
  0.419000000      -2.08241177    
  0.419499993      -2.35394835    
  0.419999987      -2.64690375    
  0.420500010      -2.96315360    
  0.421000004      -3.30379295    
  0.421499997      -3.67041731    
  0.421999991      -4.06486320    
  0.422500014      -4.48898649    
  0.423000008      -4.94447994    
  0.423500001      -5.43350983    
  0.423999995      -5.95773458    
  0.424499989      -6.51954794    
  0.425000012      -7.12145424    
  0.425500005      -7.76533699    
  0.425999999      -8.45436287    
  0.426499993      -9.19078255    
  0.426999986      -9.97761345    
  0.427500010      -10.8179808    
  0.428000003      -11.7147827    