   0.00000000       0.00000000    
   5.00000024E-04   0.00000000    
   1.00000005E-03   0.00000000    
   1.50000001E-03   0.00000000    
   2.00000009E-03  -7.58420659E-21
   2.49999994E-03  -6.49612917E-20
   3.00000003E-03  -3.05285791E-19
   3.50000011E-03  -1.03831422E-18
   4.00000019E-03  -2.84858400E-18
   4.49999981E-03  -6.66821849E-18
   4.99999989E-03  -1.37660704E-17
   5.49999997E-03  -2.55814555E-17
   6.00000005E-03  -4.33309134E-17
   6.50000013E-03  -6.73358834E-17
   7.00000022E-03  -9.60615830E-17
   7.49999983E-03  -1.24922920E-16
   8.00000038E-03  -1.44997217E-16
   8.50000046E-03  -1.41878072E-16
   8.99999961E-03  -9.49952149E-17
   9.49999969E-03   2.22048430E-17
   9.99999978E-03   2.40791218E-16
   1.04999999E-02   5.93195278E-16
   1.09999999E-02   1.10807304E-15
   1.15000000E-02   1.80306739E-15
   1.20000001E-02   2.67562144E-15
   1.25000002E-02   3.69233351E-15
   1.30000003E-02   4.77773508E-15
   1.35000004E-02   5.80378293E-15
   1.40000004E-02   6.58172298E-15
   1.44999996E-02   6.85829575E-15
   1.49999997E-02   6.31837451E-15
   1.54999997E-02   4.59610665E-15
   1.60000008E-02   1.29630483E-15
   1.64999999E-02  -3.97273741E-15
   1.70000009E-02  -1.15547102E-14
   1.75000001E-02  -2.16898778E-14
   1.79999992E-02  -3.44510356E-14
   1.85000002E-02  -4.96746233E-14
   1.89999994E-02  -6.68922586E-14
   1.95000004E-02  -8.52694719E-14
   1.99999996E-02  -1.03559630E-13
   2.05000006E-02  -1.20081489E-13
   2.09999997E-02  -1.32729317E-13
   2.15000007E-02  -1.39023423E-13
   2.19999999E-02  -1.36207560E-13
   2.25000009E-02  -1.21397331E-13
   2.30000000E-02  -9.17800382E-14
   2.34999992E-02  -4.48624021E-14
   2.40000002E-02   2.12421752E-14
   2.44999994E-02   1.07500353E-13
   2.50000004E-02   2.13638311E-13
   2.54999995E-02   3.37836963E-13
   2.60000005E-02   4.76470317E-13
   2.64999997E-02   6.23915958E-13
   2.70000007E-02   7.72467919E-13
   2.74999999E-02   9.12380197E-13
   2.80000009E-02   1.03206560E-12
   2.85000000E-02   1.11846632E-12
   2.89999992E-02   1.15760645E-12
   2.95000002E-02   1.13532296E-12
   2.99999993E-02   1.03815784E-12
   3.05000003E-02   8.54383946E-13
   3.09999995E-02   5.75116452E-13
   3.15000005E-02   1.95453747E-13
   3.20000015E-02  -2.84423716E-13
   3.24999988E-02  -8.58276666E-13
   3.29999998E-02  -1.51303644E-12
   3.35000008E-02  -2.22832451E-12
   3.40000018E-02  -2.97634291E-12
   3.44999991E-02  -3.72220050E-12
   3.50000001E-02  -4.42472708E-12
   3.55000012E-02  -5.03779614E-12
   3.59999985E-02  -5.51215887E-12
   3.64999995E-02  -5.79775073E-12
   3.70000005E-02  -5.84639715E-12
   3.75000015E-02  -5.61482111E-12
   3.79999988E-02  -5.06780902E-12
   3.84999998E-02  -4.18137009E-12
   3.90000008E-02  -2.94570466E-12
   3.95000018E-02  -1.36778284E-12
   3.99999991E-02   5.26670070E-13
   4.05000001E-02   2.69196796E-12
   4.10000011E-02   5.06220716E-12
   4.14999984E-02   7.55208309E-12
   4.19999994E-02   1.00588687E-11
   4.25000004E-02   1.24655737E-11
   4.30000015E-02   1.46452451E-11
   4.34999987E-02   1.64662953E-11
   4.39999998E-02   1.77986740E-11
   4.45000008E-02   1.85206329E-11
   4.50000018E-02   1.85257920E-11
   4.54999991E-02   1.77301073E-11
   4.60000001E-02   1.60784198E-11
   4.65000011E-02   1.35501306E-11
   4.69999984E-02   1.01636486E-11
   4.74999994E-02   5.97926179E-12
   4.80000004E-02   1.10012379E-12
   4.85000014E-02  -4.32885108E-12
   4.89999987E-02  -1.01242964E-11
   4.94999997E-02  -1.60699180E-11
   5.00000007E-02  -2.19241188E-11
   5.05000018E-02  -2.74294927E-11
   5.09999990E-02  -3.23238138E-11
   5.15000001E-02  -3.63520707E-11
   5.20000011E-02  -3.92790175E-11
   5.24999984E-02  -4.09015599E-11
   5.29999994E-02  -4.10604259E-11
   5.35000004E-02  -3.96503663E-11
   5.40000014E-02  -3.66283635E-11
   5.44999987E-02  -3.20192380E-11
   5.49999997E-02  -2.59183057E-11
   5.55000007E-02  -1.84906621E-11
   5.60000017E-02  -9.96709659E-12
   5.64999990E-02  -6.36560845E-13
   5.70000000E-02   9.16451116E-12
   5.75000010E-02   1.90656657E-11
   5.79999983E-02   2.86780998E-11
   5.84999993E-02   3.76118130E-11
   5.90000004E-02   4.54934562E-11
   5.95000014E-02   5.19839345E-11
   5.99999987E-02   5.67948640E-11
   6.04999997E-02   5.97030411E-11
   6.10000007E-02   6.05620554E-11
   6.15000017E-02   5.93103552E-11
   6.19999990E-02   5.59752938E-11
   6.25000000E-02   5.06728028E-11
   6.30000010E-02   4.36025903E-11
   6.35000020E-02   3.50390793E-11
   6.40000030E-02   2.53183689E-11
   6.44999966E-02   1.48219458E-11
   6.49999976E-02   3.95789825E-12
   6.54999986E-02  -6.85937418E-12
   6.59999996E-02  -1.72298599E-11
   6.65000007E-02  -2.67879156E-11
   6.70000017E-02  -3.52203995E-11
   6.75000027E-02  -4.22818863E-11
   6.80000037E-02  -4.78060994E-11
   6.84999973E-02  -5.17127660E-11
   6.89999983E-02  -5.40094948E-11
   6.94999993E-02  -5.47884411E-11
   7.00000003E-02  -5.42178490E-11
   7.05000013E-02  -5.25289048E-11
   7.10000023E-02  -4.99985678E-11
   7.15000033E-02  -4.69293215E-11
   7.19999969E-02  -4.36270187E-11
   7.24999979E-02  -4.03781487E-11
   7.29999989E-02  -3.74278594E-11
   7.34999999E-02  -3.49602222E-11
   7.40000010E-02  -3.30819677E-11
   7.45000020E-02  -3.18109289E-11
   7.50000030E-02  -3.10701048E-11
   7.54999965E-02  -3.06879383E-11
   7.59999976E-02  -3.04052061E-11
   7.64999986E-02  -2.98883661E-11
   7.69999996E-02  -2.87489581E-11
   7.75000006E-02  -2.65681799E-11
   7.80000016E-02  -2.29255313E-11
   7.85000026E-02  -1.74299932E-11
   7.90000036E-02  -9.75208803E-12
   7.94999972E-02   3.45001995E-13
   7.99999982E-02   1.29771749E-11
   8.04999992E-02   2.81157771E-11
   8.10000002E-02   4.55702941E-11
   8.15000013E-02   6.49787377E-11
   8.20000023E-02   8.58068755E-11
   8.25000033E-02   1.07356735E-10
   8.29999968E-02   1.28784899E-10
   8.34999979E-02   1.49129945E-10
   8.39999989E-02   1.67348316E-10
   8.44999999E-02   1.82357449E-10
   8.50000009E-02   1.93084215E-10
   8.55000019E-02   1.98516675E-10
   8.60000029E-02   1.97756728E-10
   8.64999965E-02   1.90071264E-10
   8.69999975E-02   1.74938897E-10
   8.74999985E-02   1.52090257E-10
   8.79999995E-02   1.21539209E-10
   8.85000005E-02   8.36033257E-11
   8.90000015E-02   3.89119258E-11
   8.95000026E-02  -1.15989935E-11
   9.00000036E-02  -6.67054953E-11
   9.04999971E-02  -1.24927610E-10
   9.09999982E-02  -1.84573537E-10
   9.14999992E-02  -2.43794540E-10
   9.20000002E-02  -3.00648367E-10
   9.25000012E-02  -3.53168439E-10
   9.30000022E-02  -3.99436151E-10
   9.35000032E-02  -4.37652692E-10
   9.39999968E-02  -4.66207239E-10
   9.44999978E-02  -4.83738272E-10
   9.49999988E-02  -4.89185303E-10
   9.54999998E-02  -4.81827633E-10
   9.60000008E-02  -4.61309102E-10
   9.65000018E-02  -4.27646640E-10
   9.70000029E-02  -3.81222054E-10
   9.74999964E-02  -3.22757182E-10
   9.79999974E-02  -2.53273402E-10
   9.84999985E-02  -1.74036452E-10
   9.89999995E-02  -8.64897529E-11
   9.95000005E-02   7.82185688E-12
  0.100000001       1.07333739E-10
  0.100500003       2.10545512E-10
  0.101000004       3.16103033E-10
  0.101499997       4.22875152E-10
  0.101999998       5.30021305E-10
  0.102499999       6.37046804E-10
  0.103000000       7.43842987E-10
  0.103500001       8.50711002E-10
  0.104000002       9.58366941E-10
  0.104500003       1.06792952E-09
  0.104999997       1.18088883E-09
  0.105499998       1.29905953E-09
  0.105999999       1.42451939E-09
  0.106500000       1.55953706E-09
  0.107000001       1.70649073E-09
  0.107500002       1.86778504E-09
  0.108000003       2.04576489E-09
  0.108499996       2.24263674E-09
  0.108999997       2.46039433E-09
  0.109499998       2.70075939E-09
  0.109999999       2.96513392E-09
  0.110500000       3.25457061E-09
  0.111000001       3.56976226E-09
  0.111500002       3.91104837E-09
  0.112000003       4.27844205E-09
  0.112499997       4.67167460E-09
  0.112999998       5.09025400E-09
  0.113499999       5.53353852E-09
  0.114000000       6.00082073E-09
  0.114500001       6.49141807E-09
  0.115000002       7.00476122E-09
  0.115500003       7.54049267E-09
  0.115999997       8.09854672E-09
  0.116499998       8.67922800E-09
  0.116999999       9.28328436E-09
  0.117500000       9.91195748E-09
  0.118000001       1.05670201E-08
  0.118500002       1.12507976E-08
  0.119000003       1.19661783E-08
  0.119499996       1.27166029E-08
  0.119999997       1.35060390E-08
  0.120499998       1.43389496E-08
  0.120999999       1.52202482E-08
  0.121500000       1.61552389E-08
  0.122000001       1.71495724E-08
  0.122500002       1.82091853E-08
  0.123000003       1.93402450E-08
  0.123499997       2.05491055E-08
  0.123999998       2.18422667E-08
  0.124499999       2.32263364E-08
  0.125000000       2.47080294E-08
  0.125499994       2.62941402E-08
  0.126000002       2.79915735E-08
  0.126499996       2.98073424E-08
  0.127000004       3.17486162E-08
  0.127499998       3.38227615E-08
  0.128000006       3.60373988E-08
  0.128500000       3.84004579E-08
  0.128999993       4.09202556E-08
  0.129500002       4.36055743E-08
  0.129999995       4.64657290E-08
  0.130500004       4.95106569E-08
  0.130999997       5.27510053E-08
  0.131500006       5.61981821E-08
  0.131999999       5.98644476E-08
  0.132499993       6.37629967E-08
  0.133000001       6.79079974E-08
  0.133499995       7.23146627E-08
  0.134000003       7.69992923E-08
  0.134499997       8.19793584E-08
  0.135000005       8.72734987E-08
  0.135499999       9.29015442E-08
  0.136000007       9.88846125E-08
  0.136500001       1.05245064E-07
  0.136999995       1.12006568E-07
  0.137500003       1.19194070E-07
  0.137999997       1.26833882E-07
  0.138500005       1.34953623E-07
  0.138999999       1.43582312E-07
  0.139500007       1.52750346E-07
  0.140000001       1.62489528E-07
  0.140499994       1.72833154E-07
  0.141000003       1.83815999E-07
  0.141499996       1.95474428E-07
  0.142000005       2.07846469E-07
  0.142499998       2.20971913E-07
  0.143000007       2.34892426E-07
  0.143500000       2.49651663E-07
  0.143999994       2.65295427E-07
  0.144500002       2.81871905E-07
  0.144999996       2.99431832E-07
  0.145500004       3.18028611E-07
  0.145999998       3.37718774E-07
  0.146500006       3.58561891E-07
  0.147000000       3.80621231E-07
  0.147499993       4.03963668E-07
  0.148000002       4.28660115E-07
  0.148499995       4.54785948E-07
  0.149000004       4.82420944E-07
  0.149499997       5.11649716E-07
  0.150000006       5.42562077E-07
  0.150500000       5.75253011E-07
  0.150999993       6.09823246E-07
  0.151500002       6.46379135E-07
  0.151999995       6.85033001E-07
  0.152500004       7.25903362E-07
  0.152999997       7.69115161E-07
  0.153500006       8.14799705E-07
  0.153999999       8.63095124E-07
  0.154499993       9.14146312E-07
  0.155000001       9.68105496E-07
  0.155499995       1.02513206E-06
  0.156000003       1.08539280E-06
  0.156499997       1.14906243E-06
  0.157000005       1.21632365E-06
  0.157499999       1.28736770E-06
  0.158000007       1.36239464E-06
  0.158500001       1.44161356E-06
  0.158999994       1.52524376E-06
  0.159500003       1.61351420E-06
  0.159999996       1.70666488E-06
  0.160500005       1.80494715E-06
  0.160999998       1.90862420E-06
  0.161500007       2.01797252E-06
  0.162000000       2.13328121E-06
  0.162499994       2.25485428E-06
  0.163000003       2.38301072E-06
  0.163499996       2.51808456E-06
  0.164000005       2.66042707E-06
  0.164499998       2.81040639E-06
  0.165000007       2.96840881E-06
  0.165500000       3.13484043E-06
  0.165999994       3.31012643E-06
  0.166500002       3.49471316E-06
  0.166999996       3.68906831E-06
  0.167500004       3.89368188E-06
  0.167999998       4.10906705E-06
  0.168500006       4.33576270E-06
  0.169000000       4.57433134E-06
  0.169499993       4.82536234E-06
  0.170000002       5.08947141E-06
  0.170499995       5.36730340E-06
  0.171000004       5.65953223E-06
  0.171499997       5.96686141E-06
  0.172000006       6.29002670E-06
  0.172499999       6.62979664E-06
  0.172999993       6.98697340E-06
  0.173500001       7.36239417E-06
  0.173999995       7.75693479E-06
  0.174500003       8.17150612E-06
  0.174999997       8.60706223E-06
  0.175500005       9.06459627E-06
  0.175999999       9.54514508E-06
  0.176499993       1.00497900E-05
  0.177000001       1.05796580E-05
  0.177499995       1.11359268E-05
  0.178000003       1.17198224E-05
  0.178499997       1.23326236E-05
  0.179000005       1.29756618E-05
  0.179499999       1.36503295E-05
  0.180000007       1.43580737E-05
  0.180500001       1.51004051E-05
  0.180999994       1.58788971E-05
  0.181500003       1.66951868E-05
  0.181999996       1.75509831E-05
  0.182500005       1.84480632E-05
  0.182999998       1.93882806E-05
  0.183500007       2.03735635E-05
  0.184000000       2.14059182E-05
  0.184499994       2.24874348E-05
  0.185000002       2.36202904E-05
  0.185499996       2.48067427E-05
  0.186000004       2.60491488E-05
  0.186499998       2.73499572E-05
  0.187000006       2.87117145E-05
  0.187500000       3.01370692E-05
  0.187999994       3.16287660E-05
  0.188500002       3.31896626E-05
  0.188999996       3.48227259E-05
  0.189500004       3.65310443E-05
  0.189999998       3.83178158E-05
  0.190500006       4.01863654E-05
  0.191000000       4.21401492E-05
  0.191499993       4.41827433E-05
  0.192000002       4.63178549E-05
  0.192499995       4.85493474E-05
  0.193000004       5.08812082E-05
  0.193499997       5.33175880E-05
  0.194000006       5.58627762E-05
  0.194499999       5.85212292E-05
  0.194999993       6.12975564E-05
  0.195500001       6.41965453E-05
  0.195999995       6.72231472E-05
  0.196500003       7.03824771E-05
  0.196999997       7.36798756E-05
  0.197500005       7.71208142E-05
  0.197999999       8.07110118E-05
  0.198500007       8.44563474E-05
  0.199000001       8.83629255E-05
  0.199499995       9.24370543E-05
  0.200000003       9.66852676E-05
  0.200499997       1.01114318E-04
  0.201000005       1.05731175E-04
  0.201499999       1.10543071E-04
  0.202000007       1.15557465E-04
  0.202500001       1.20782075E-04
  0.202999994       1.26224855E-04
  0.203500003       1.31894034E-04
  0.203999996       1.37798124E-04
  0.204500005       1.43945872E-04
  0.204999998       1.50346372E-04
  0.205500007       1.57008952E-04
  0.206000000       1.63943259E-04
  0.206499994       1.71159249E-04
  0.207000002       1.78667149E-04
  0.207499996       1.86477570E-04
  0.208000004       1.94601424E-04
  0.208499998       2.03049931E-04
  0.209000006       2.11834675E-04
  0.209500000       2.20967588E-04
  0.209999993       2.30460995E-04
  0.210500002       2.40327485E-04
  0.210999995       2.50580080E-04
  0.211500004       2.61232257E-04
  0.211999997       2.72297766E-04
  0.212500006       2.83790810E-04
  0.213000000       2.95725942E-04
  0.213499993       3.08118237E-04
  0.214000002       3.20983032E-04
  0.214499995       3.34336277E-04
  0.215000004       3.48194153E-04
  0.215499997       3.62573541E-04
  0.216000006       3.77491524E-04
  0.216499999       3.92965827E-04
  0.216999993       4.09014465E-04
  0.217500001       4.25656122E-04
  0.217999995       4.42909863E-04
  0.218500003       4.60795243E-04
  0.218999997       4.79332317E-04
  0.219500005       4.98541689E-04
  0.219999999       5.18444518E-04
  0.220500007       5.39062312E-04
  0.221000001       5.60417247E-04
  0.221499994       5.82531909E-04
  0.222000003       6.05429639E-04
  0.222499996       6.29134069E-04
  0.223000005       6.53669646E-04
  0.223499998       6.79061108E-04
  0.224000007       7.05333950E-04
  0.224500000       7.32514192E-04
  0.224999994       7.60628376E-04
  0.225500003       7.89703627E-04
  0.225999996       8.19767767E-04
  0.226500005       8.50849028E-04
  0.226999998       8.82976397E-04
  0.227500007       9.16179328E-04
  0.228000000       9.50487971E-04
  0.228499994       9.85933002E-04
  0.229000002       1.02254574E-03
  0.229499996       1.06035825E-03
  0.230000004       1.09940290E-03
  0.230499998       1.13971287E-03
  0.231000006       1.18132180E-03
  0.231500000       1.22426415E-03
  0.231999993       1.26857474E-03
  0.232500002       1.31428929E-03
  0.232999995       1.36144378E-03
  0.233500004       1.41007511E-03
  0.233999997       1.46022043E-03
  0.234500006       1.51191780E-03
  0.234999999       1.56520575E-03
  0.235499993       1.62012328E-03
  0.236000001       1.67671009E-03
  0.236499995       1.73500646E-03
  0.237000003       1.79505290E-03
  0.237499997       1.85689109E-03
  0.238000005       1.92056259E-03
  0.238499999       1.98610965E-03
  0.238999993       2.05357536E-03
  0.239500001       2.12300289E-03
  0.239999995       2.19443627E-03
  0.240500003       2.26791971E-03
  0.240999997       2.34349794E-03
  0.241500005       2.42121634E-03
  0.241999999       2.50112033E-03
  0.242500007       2.58325576E-03
  0.243000001       2.66766921E-03
  0.243499994       2.75440700E-03
  0.244000003       2.84351688E-03
  0.244499996       2.93504563E-03
  0.245000005       3.02904123E-03
  0.245499998       3.12555139E-03
  0.246000007       3.22462409E-03
  0.246500000       3.32630752E-03
  0.246999994       3.43065034E-03
  0.247500002       3.53770121E-03
  0.247999996       3.64750857E-03
  0.248500004       3.76012083E-03
  0.248999998       3.87558714E-03
  0.249500006       3.99395591E-03
  0.250000000       4.11527557E-03
  0.250499994       4.23959503E-03
  0.250999987       4.36696177E-03
  0.251500010       4.49742563E-03
  0.252000004       4.63103270E-03
  0.252499998       4.76783188E-03
  0.252999991       4.90786927E-03
  0.253500015       5.05119283E-03
  0.254000008       5.19784819E-03
  0.254500002       5.34788100E-03
  0.254999995       5.50133688E-03
  0.255499989       5.65826148E-03
  0.256000012       5.81869716E-03
  0.256500006       5.98268863E-03
  0.256999999       6.15027780E-03
  0.257499993       6.32150657E-03
  0.257999986       6.49641547E-03
  0.258500010       6.67504454E-03
  0.259000003       6.85743196E-03
  0.259499997       7.04361545E-03
  0.259999990       7.23363226E-03
  0.260500014       7.42751686E-03
  0.261000007       7.62530137E-03
  0.261500001       7.82702025E-03
  0.261999995       8.03270191E-03
  0.262499988       8.24237894E-03
  0.263000011       8.45607556E-03
  0.263500005       8.67381878E-03
  0.263999999       8.89563281E-03
  0.264499992       9.12153907E-03
  0.264999986       9.35155712E-03
  0.265500009       9.58570465E-03
  0.266000003       9.82399751E-03
  0.266499996       1.00664487E-02
  0.266999990       1.03130694E-02
  0.267500013       1.05638681E-02
  0.268000007       1.08188512E-02
  0.268500000       1.10780206E-02
  0.268999994       1.13413781E-02
  0.269499987       1.16089210E-02
  0.270000011       1.18806446E-02
  0.270500004       1.21565405E-02
  0.270999998       1.24365976E-02
  0.271499991       1.27208000E-02
  0.272000015       1.30091310E-02
  0.272500008       1.33015700E-02
  0.273000002       1.35980900E-02
  0.273499995       1.38986651E-02
  0.273999989       1.42032625E-02
  0.274500012       1.45118460E-02
  0.275000006       1.48243755E-02
  0.275500000       1.51408063E-02
  0.275999993       1.54610937E-02
  0.276499987       1.57851856E-02
  0.277000010       1.61130242E-02
  0.277500004       1.64445490E-02
  0.277999997       1.67796947E-02
  0.278499991       1.71183944E-02
  0.279000014       1.74605735E-02
  0.279500008       1.78061519E-02
  0.280000001       1.81550458E-02
  0.280499995       1.85071677E-02
  0.280999988       1.88624244E-02
  0.281500012       1.92207173E-02
  0.282000005       1.95819438E-02
  0.282499999       1.99459940E-02
  0.282999992       2.03127582E-02
  0.283499986       2.06821114E-02
  0.284000009       2.10539345E-02
  0.284500003       2.14280952E-02
  0.284999996       2.18044575E-02
  0.285499990       2.21828837E-02
  0.286000013       2.25632247E-02
  0.286500007       2.29453295E-02
  0.287000000       2.33290400E-02
  0.287499994       2.37141959E-02
  0.287999988       2.41006259E-02
  0.288500011       2.44881529E-02
  0.289000005       2.48766001E-02
  0.289499998       2.52657812E-02
  0.289999992       2.56555006E-02
  0.290499985       2.60455664E-02
  0.291000009       2.64357682E-02
  0.291500002       2.68259048E-02
  0.291999996       2.72157546E-02
  0.292499989       2.76050996E-02
  0.293000013       2.79937126E-02
  0.293500006       2.83813607E-02
  0.294000000       2.87678074E-02
  0.294499993       2.91528068E-02
  0.294999987       2.95361094E-02
  0.295500010       2.99174599E-02
  0.296000004       3.02966014E-02
  0.296499997       3.06732636E-02
  0.296999991       3.10471766E-02
  0.297500014       3.14180665E-02
  0.298000008       3.17856446E-02
  0.298500001       3.21496278E-02
  0.298999995       3.25097293E-02
  0.299499989       3.28656435E-02
  0.300000012       3.32170762E-02
  0.300500005       3.35637145E-02
  0.300999999       3.39052491E-02
  0.301499993       3.42413709E-02
  0.301999986       3.45717557E-02
  0.302500010       3.48960795E-02
  0.303000003       3.52140181E-02
  0.303499997       3.55252326E-02
  0.303999990       3.58293951E-02
  0.304500014       3.61261666E-02
  0.305000007       3.64152081E-02
  0.305500001       3.66961695E-02
  0.305999994       3.69687043E-02
  0.306499988       3.72324698E-02
  0.307000011       3.74871045E-02
  0.307500005       3.77322622E-02
  0.307999998       3.79675813E-02
  0.308499992       3.81927080E-02
  0.308999985       3.84072848E-02
  0.309500009       3.86109501E-02
  0.310000002       3.88033427E-02
  0.310499996       3.89841013E-02
  0.310999990       3.91528644E-02
  0.311500013       3.93092744E-02
  0.312000006       3.94529700E-02
  0.312500000       3.95835824E-02
  0.312999994       3.97007614E-02
  0.313499987       3.98041457E-02
  0.314000010       3.98933776E-02
  0.314500004       3.99681069E-02
  0.314999998       4.00279760E-02
  0.315499991       4.00726348E-02
  0.316000015       4.01017480E-02
  0.316500008       4.01149578E-02
  0.317000002       4.01119329E-02
  0.317499995       4.00923342E-02
  0.317999989       4.00558375E-02
  0.318500012       4.00021076E-02
  0.319000006       3.99308242E-02
  0.319499999       3.98416780E-02
  0.319999993       3.97343524E-02
  0.320499986       3.96085493E-02
  0.321000010       3.94639671E-02
  0.321500003       3.93003151E-02
  0.321999997       3.91173214E-02
  0.322499990       3.89146954E-02
  0.323000014       3.86921801E-02
  0.323500007       3.84495147E-02
  0.324000001       3.81864533E-02
  0.324499995       3.79027501E-02
  0.324999988       3.75981852E-02
  0.325500011       3.72725315E-02
  0.326000005       3.69255804E-02
  0.326499999       3.65571268E-02
  0.326999992       3.61669995E-02
  0.327499986       3.57550085E-02
  0.328000009       3.53209935E-02
  0.328500003       3.48647982E-02
  0.328999996       3.43862884E-02
  0.329499990       3.38853337E-02
  0.330000013       3.33618224E-02
  0.330500007       3.28156538E-02
  0.331000000       3.22467424E-02
  0.331499994       3.16550173E-02
  0.331999987       3.10404226E-02
  0.332500011       3.04029118E-02
  0.333000004       2.97424607E-02
  0.333499998       2.90590543E-02
  0.333999991       2.83526983E-02
  0.334500015       2.76234131E-02
  0.335000008       2.68712342E-02
  0.335500002       2.60962136E-02
  0.335999995       2.52984203E-02
  0.336499989       2.44779419E-02
  0.337000012       2.36348771E-02
  0.337500006       2.27693450E-02
  0.338000000       2.18814872E-02
  0.338499993       2.09714584E-02
  0.338999987       2.00394262E-02
  0.339500010       1.90855805E-02
  0.340000004       1.81101337E-02
  0.340499997       1.71133094E-02
  0.340999991       1.60953496E-02
  0.341500014       1.50565170E-02
  0.342000008       1.39970919E-02
  0.342500001       1.29173724E-02
  0.342999995       1.18176732E-02
  0.343499988       1.06983306E-02
  0.344000012       9.55969375E-03
  0.344500005       8.40213615E-03
  0.344999999       7.22604571E-03
  0.345499992       6.03182800E-03
  0.345999986       4.81990725E-03
  0.346500009       3.59072560E-03
  0.347000003       2.34474242E-03
  0.347499996       1.08243432E-03
  0.347999990      -1.95704706E-04
  0.348500013      -1.48916396E-03
  0.349000007      -2.79741664E-03
  0.349500000      -4.11991822E-03
  0.349999994      -5.45610860E-03
  0.350499988      -6.80541201E-03
  0.351000011      -8.16723611E-03
  0.351500005      -9.54097416E-03
  0.351999998      -1.09260054E-02
  0.352499992      -1.23216901E-02
  0.352999985      -1.37273800E-02
  0.353500009      -1.51424110E-02
  0.354000002      -1.65661052E-02
  0.354499996      -1.79977715E-02
  0.354999989      -1.94367040E-02
  0.355500013      -2.08821893E-02
  0.356000006      -2.23334972E-02
  0.356500000      -2.37898901E-02
  0.356999993      -2.52506193E-02
  0.357499987      -2.67149229E-02
  0.358000010      -2.81820334E-02
  0.358500004      -2.96511743E-02
  0.358999997      -3.11215594E-02
  0.359499991      -3.25923897E-02
  0.360000014      -3.40628698E-02
  0.360500008      -3.55321839E-02
  0.361000001      -3.69995199E-02
  0.361499995      -3.84640694E-02
  0.361999989      -3.99249941E-02
  0.362500012      -4.13814671E-02
  0.363000005      -4.28326651E-02
  0.363499999      -4.42777537E-02
  0.363999993      -4.57158908E-02
  0.364499986      -4.71462421E-02
  0.365000010      -4.85679731E-02
  0.365500003      -4.99802493E-02
  0.365999997      -5.13822250E-02
  0.366499990      -5.27730696E-02
  0.367000014      -5.41519560E-02
  0.367500007      -5.55180460E-02
  0.368000001      -5.68705201E-02
  0.368499994      -5.82085513E-02
  0.368999988      -5.95313236E-02
  0.369500011      -6.08380362E-02
  0.370000005      -6.21278770E-02
  0.370499998      -6.34000525E-02
  0.370999992      -6.46537766E-02
  0.371499985      -6.58882782E-02
  0.372000009      -6.71027824E-02
  0.372500002      -6.82965294E-02
  0.372999996      -6.94687739E-02
  0.373499990      -7.06187785E-02
  0.374000013      -7.17458352E-02
  0.374500006      -7.28492141E-02
  0.375000000      -7.39282295E-02
  0.375499994      -7.49822035E-02
  0.375999987      -7.60104731E-02
  0.376500010      -7.70123750E-02
  0.377000004      -7.79872835E-02
  0.377499998      -7.89345875E-02
  0.377999991      -7.98536837E-02
  0.378500015      -8.07439834E-02
  0.379000008      -8.16049352E-02
  0.379500002      -8.24359879E-02
  0.379999995      -8.32366347E-02
  0.380499989      -8.40063617E-02
  0.381000012      -8.47446918E-02
  0.381500006      -8.54511708E-02
  0.381999999      -8.61253515E-02
  0.382499993      -8.67668241E-02
  0.382999986      -8.73751864E-02
  0.383500010      -8.79500881E-02
  0.384000003      -8.84911790E-02
  0.384499997      -8.89981166E-02
  0.384999990      -8.94706249E-02
  0.385500014      -8.99084136E-02
  0.386000007      -9.03112590E-02
  0.386500001      -9.06789079E-02
  0.386999995      -9.10111666E-02
  0.387499988      -9.13078710E-02
  0.388000011      -9.15688798E-02
  0.388500005      -9.17940512E-02
  0.388999999      -9.19833034E-02
  0.389499992      -9.21365619E-02
  0.389999986      -9.22537819E-02
  0.390500009      -9.23349410E-02
  0.391000003      -9.23800468E-02
  0.391499996      -9.23891440E-02
  0.391999990      -9.23622772E-02
  0.392500013      -9.22995284E-02
  0.393000007      -9.22010168E-02
  0.393500000      -9.20668766E-02
  0.393999994      -9.18972716E-02
  0.394499987      -9.16923806E-02
  0.395000011      -9.14524123E-02
  0.395500004      -9.11776200E-02
  0.395999998      -9.08682421E-02
  0.396499991      -9.05245692E-02
  0.397000015      -9.01469216E-02
  0.397500008      -8.97356272E-02
  0.398000002      -8.92910287E-02
  0.398499995      -8.88135284E-02
  0.398999989      -8.83034989E-02
  0.399500012      -8.77613947E-02
  0.400000006      -8.71876329E-02
  0.400500000      -8.65826905E-02
  0.400999993      -8.59470516E-02
  0.401499987      -8.52812231E-02
  0.402000010      -8.45857188E-02
  0.402500004      -8.38611051E-02
  0.402999997      -8.31079185E-02
  0.403499991      -8.23267475E-02
  0.404000014      -8.15181956E-02
  0.404500008      -8.06828663E-02
  0.405000001      -7.98213854E-02
  0.405499995      -7.89344013E-02
  0.405999988      -7.80225769E-02
  0.406500012      -7.70865828E-02
  0.407000005      -7.61270896E-02
  0.407499999      -7.51447976E-02
  0.407999992      -7.41404295E-02
  0.408499986      -7.31146857E-02
  0.409000009      -7.20683113E-02
  0.409500003      -7.10020438E-02
  0.409999996      -6.99166209E-02
  0.410499990      -6.88127950E-02
  0.411000013      -6.76913410E-02
  0.411500007      -6.65530264E-02
  0.412000000      -6.53986111E-02
  0.412499994      -6.42288923E-02
  0.412999988      -6.30446449E-02
  0.413500011      -6.18466549E-02
  0.414000005      -6.06357120E-02
  0.414499998      -5.94126061E-02
  0.414999992      -5.81781305E-02
  0.415499985      -5.69330752E-02
  0.416000009      -5.56782261E-02
  0.416500002      -5.44143766E-02
  0.416999996      -5.31423166E-02
  0.417499989      -5.18628284E-02
  0.418000013      -5.05766906E-02
  0.418500006      -4.92846817E-02
  0.419000000      -4.79875766E-02
  0.419499993      -4.66861390E-02
  0.419999987      -4.53811213E-02
  0.420500010      -4.40732911E-02
  0.421000004      -4.27633859E-02
  0.421499997      -4.14521396E-02
  0.421999991      -4.01402935E-02
  0.422500014      -3.88285555E-02
  0.423000008      -3.75176407E-02
  0.423500001      -3.62082422E-02
  0.423999995      -3.49010564E-02
  0.424499989      -3.35967503E-02
  0.425000012      -3.22959945E-02
  0.425500005      -3.09994351E-02
  0.425999999      -2.97077131E-02
  0.426499993      -2.84214541E-02
  0.426999986      -2.71412674E-02
  0.427500010      -2.58677490E-02
  0.428000003      -2.46014819E-02