   0.00000000       0.00000000    
   5.00000024E-04   0.00000000    
   1.00000005E-03   0.00000000    
   1.50000001E-03   2.21023049E-14
   2.00000009E-03   1.35889604E-13
   2.49999994E-03   4.53322113E-13
   3.00000003E-03   1.05543872E-12
   3.50000011E-03   1.82272123E-12
   4.00000019E-03   2.16441470E-12
   4.49999981E-03   6.76540963E-13
   4.99999989E-03  -5.20228652E-12
   5.49999997E-03  -1.94318520E-11
   6.00000005E-03  -4.73787329E-11
   6.50000013E-03  -9.54594181E-11
   7.00000022E-03  -1.70310044E-10
   7.49999983E-03  -2.77429024E-10
   8.00000038E-03  -4.19320911E-10
   8.50000046E-03  -5.93277705E-10
   8.99999961E-03  -7.89041554E-10
   9.49999969E-03  -9.86707938E-10
   9.99999978E-03  -1.15530430E-09
   1.04999999E-02  -1.25252064E-09
   1.09999999E-02  -1.22604438E-09
   1.15000000E-02  -1.01686137E-09
   1.20000001E-02  -5.64713387E-10
   1.25000002E-02   1.84336532E-10
   1.30000003E-02   1.26856059E-09
   1.35000004E-02   2.70012057E-09
   1.40000004E-02   4.45446702E-09
   1.44999996E-02   6.46085052E-09
   1.49999997E-02   8.59533777E-09
   1.54999997E-02   1.06778497E-08
   1.60000008E-02   1.24745370E-08
   1.64999999E-02   1.37066589E-08
   1.70000009E-02   1.40665426E-08
   1.75000001E-02   1.32406983E-08
   1.79999992E-02   1.09393286E-08
   1.85000002E-02   6.93074709E-09
   1.89999994E-02   1.07828935E-09
   1.95000004E-02  -6.62322153E-09
   1.99999996E-02  -1.60152265E-08
   2.05000006E-02  -2.67511258E-08
   2.09999997E-02  -3.82839431E-08
   2.15000007E-02  -4.98693105E-08
   2.19999999E-02  -6.05864869E-08
   2.25000009E-02  -6.93788920E-08
   2.30000000E-02  -7.51140874E-08
   2.34999992E-02  -7.66615287E-08
   2.40000002E-02  -7.29844274E-08
   2.44999994E-02  -6.32404564E-08
   2.50000004E-02  -4.68841534E-08
   2.54999995E-02  -2.37629880E-08
   2.60000005E-02   5.80166581E-09
   2.64999997E-02   4.09578220E-08
   2.70000007E-02   8.02981717E-08
   2.74999999E-02   1.21874237E-07
   2.80000009E-02   1.63253887E-07
   2.85000000E-02   2.01623195E-07
   2.89999992E-02   2.33931388E-07
   2.95000002E-02   2.57073452E-07
   2.99999993E-02   2.68100649E-07
   3.05000003E-02   2.64447834E-07
   3.09999995E-02   2.44161470E-07
   3.15000005E-02   2.06112787E-07
   3.20000015E-02   1.50178039E-07
   3.24999988E-02   7.73694211E-08
   3.29999998E-02  -1.00984137E-08
   3.35000008E-02  -1.08816870E-07
   3.40000018E-02  -2.14275246E-07
   3.44999991E-02  -3.21035998E-07
   3.50000001E-02  -4.22991036E-07
   3.55000012E-02  -5.13686075E-07
   3.59999985E-02  -5.86698945E-07
   3.64999995E-02  -6.36048412E-07
   3.70000005E-02  -6.56609359E-07
   3.75000015E-02  -6.44505178E-07
   3.79999988E-02  -5.97449969E-07
   3.84999998E-02  -5.15012118E-07
   3.90000008E-02  -3.98777701E-07
   3.95000018E-02  -2.52394045E-07
   3.99999991E-02  -8.14851475E-08
   4.05000001E-02   1.06566389E-07
   4.10000011E-02   3.02960444E-07
   4.14999984E-02   4.97930500E-07
   4.19999994E-02   6.81277754E-07
   4.25000004E-02   8.42959423E-07
   4.30000015E-02   9.73690931E-07
   4.34999987E-02   1.06552591E-06
   4.39999998E-02   1.11237148E-06
   4.45000008E-02   1.11040106E-06
   4.50000018E-02   1.05834044E-06
   4.54999991E-02   9.57594239E-07
   4.60000001E-02   8.12204803E-07
   4.65000011E-02   6.28644159E-07
   4.69999984E-02   4.15443367E-07
   4.74999994E-02   1.82689433E-07
   4.80000004E-02  -5.85859290E-08
   4.85000014E-02  -2.97078145E-07
   4.89999987E-02  -5.21898869E-07
   4.94999997E-02  -7.23232347E-07
   5.00000007E-02  -8.92911942E-07
   5.05000018E-02  -1.02487581E-06
   5.09999990E-02  -1.11546501E-06
   5.15000001E-02  -1.16354590E-06
   5.20000011E-02  -1.17044010E-06
   5.24999984E-02  -1.13967985E-06
   5.29999994E-02  -1.07659298E-06
   5.35000004E-02  -9.87763883E-07
   5.40000014E-02  -8.80405878E-07
   5.44999987E-02  -7.61705110E-07
   5.49999997E-02  -6.38181177E-07
   5.55000007E-02  -5.15130864E-07
   5.60000017E-02  -3.96197123E-07
   5.64999990E-02  -2.83108449E-07
   5.70000000E-02  -1.75617487E-07
   5.75000010E-02  -7.16415300E-08
   5.79999983E-02   3.23853691E-08
   5.84999993E-02   1.40989343E-07
   5.90000004E-02   2.58991435E-07
   5.95000014E-02   3.90761159E-07
   5.99999987E-02   5.39456266E-07
   6.04999997E-02   7.06304263E-07
   6.10000007E-02   8.90025717E-07
   6.15000017E-02   1.08643053E-06
   6.19999990E-02   1.28826593E-06
   6.25000000E-02   1.48533695E-06
   6.30000010E-02   1.66492555E-06
   6.35000020E-02   1.81248379E-06
   6.40000030E-02   1.91259437E-06
   6.44999966E-02   1.95011376E-06
   6.49999976E-02   1.91144159E-06
   6.54999986E-02   1.78581774E-06
   6.59999996E-02   1.56654812E-06
   6.65000007E-02   1.25204826E-06
   6.70000017E-02   8.46620992E-07
   6.75000027E-02   3.60873969E-07
   6.80000037E-02  -1.88286322E-07
   6.84999973E-02  -7.78109211E-07
   6.89999983E-02  -1.38091650E-06
   6.94999993E-02  -1.96544784E-06
   7.00000003E-02  -2.49856907E-06
   7.05000013E-02  -2.94725942E-06
   7.10000023E-02  -3.28072997E-06
   7.15000033E-02  -3.47257037E-06
   7.19999969E-02  -3.50274763E-06
   7.24999979E-02  -3.35931873E-06
   7.29999989E-02  -3.03972615E-06
   7.34999999E-02  -2.55155283E-06
   7.40000010E-02  -1.91265758E-06
   7.45000020E-02  -1.15065268E-06
   7.50000030E-02  -3.01719695E-07
   7.54999965E-02   5.91195487E-07
   7.59999976E-02   1.48070023E-06
   7.64999986E-02   2.31767513E-06
   7.69999996E-02   3.05421145E-06
   7.75000006E-02   3.64659195E-06
   7.80000016E-02   4.05811170E-06
   7.85000026E-02   4.26154429E-06
   7.90000036E-02   4.24107202E-06
   7.94999972E-02   3.99354940E-06
   7.99999982E-02   3.52897268E-06
   8.04999992E-02   2.87010857E-06
   8.10000002E-02   2.05129527E-06
   8.15000013E-02   1.11646307E-06
   8.20000023E-02   1.16482411E-07
   8.25000033E-02  -8.93967865E-07
   8.29999968E-02  -1.85983322E-06
   8.34999979E-02  -2.72918055E-06
   8.39999989E-02  -3.45650665E-06
   8.44999999E-02  -4.00564386E-06
   8.50000009E-02  -4.35202901E-06
   8.55000019E-02  -4.48419632E-06
   8.60000029E-02  -4.40433860E-06
   8.64999965E-02  -4.12791996E-06
   8.69999975E-02  -3.68231895E-06
   8.74999985E-02  -3.10461564E-06
   8.79999995E-02  -2.43865361E-06
   8.85000005E-02  -1.73159685E-06
   8.90000015E-02  -1.03022774E-06
   8.95000026E-02  -3.77243680E-07
   9.00000036E-02   1.92120083E-07
   9.04999971E-02   6.52916469E-07
   9.09999982E-02   9.92514288E-07
   9.14999992E-02   1.21162384E-06
   9.20000002E-02   1.32424452E-06
   9.25000012E-02   1.35648872E-06
   9.30000022E-02   1.34429968E-06
   9.35000032E-02   1.33028050E-06
   9.39999968E-02   1.35976825E-06
   9.44999978E-02   1.47649007E-06
   9.49999988E-02   1.71809211E-06
   9.54999998E-02   2.11193060E-06
   9.60000008E-02   2.67142809E-06
   9.65000018E-02   3.39337930E-06
   9.70000029E-02   4.25640565E-06
   9.74999964E-02   5.22085020E-06
   9.79999974E-02   6.23009828E-06
   9.84999985E-02   7.21346123E-06
   9.89999995E-02   8.09031735E-06
   9.95000005E-02   8.77554339E-06
  0.100000001       9.18566275E-06
  0.100500003       9.24547749E-06
  0.101000004       8.89465809E-06
  0.101499997       8.09382254E-06
  0.101999998       6.82962582E-06
  0.102499999       5.11843973E-06
  0.103000000       3.00816532E-06
  0.103500001       5.78161519E-07
  0.104000002      -2.06320578E-06
  0.104500003      -4.78300808E-06
  0.104999997      -7.43031251E-06
  0.105499998      -9.84443523E-06
  0.105999999      -1.18644111E-05
  0.106500000      -1.33391450E-05
  0.107000001      -1.41378323E-05
  0.107500002      -1.41594946E-05
  0.108000003      -1.33414414E-05
  0.108499996      -1.16658957E-05
  0.108999997      -9.16383306E-06
  0.109499998      -5.91649859E-06
  0.109999999      -2.05337892E-06
  0.110500000       2.25263034E-06
  0.111000001       6.79329469E-06
  0.111500002       1.13355873E-05
  0.112000003       1.56345795E-05
  0.112499997       1.94474760E-05
  0.112999998       2.25486110E-05
  0.113499999       2.47438693E-05
  0.114000000       2.58840701E-05
  0.114500001       2.58765540E-05
  0.115000002       2.46932141E-05
  0.115500003       2.23757543E-05
  0.115999997       1.90365372E-05
  0.116499998       1.48553054E-05
  0.116999999       1.00718808E-05
  0.117500000       4.97447081E-06
  0.118000001      -1.14899940E-07
  0.118500002      -4.85799956E-06
  0.119000003      -8.91950185E-06
  0.119499996      -1.19865699E-05
  0.119999997      -1.37886473E-05
  0.120499998      -1.41145392E-05
  0.120999999      -1.28272159E-05
  0.121500000      -9.87495969E-06
  0.122000001      -5.29723775E-06
  0.122500002       7.73427757E-07
  0.123000003       8.11636073E-06
  0.123499997       1.64321282E-05
  0.123999998       2.53562739E-05
  0.124499999       3.44792534E-05
  0.125000000       4.33679634E-05
  0.125499994       5.15892607E-05
  0.126000002       5.87355280E-05
  0.126499996       6.44494503E-05
  0.127000004       6.84450642E-05
  0.127499998       7.05274069E-05
  0.128000006       7.06058054E-05
  0.128500000       6.87034553E-05
  0.128999993       6.49586946E-05
  0.129500002       5.96218888E-05
  0.129999995       5.30442267E-05
  0.130500004       4.56616217E-05
  0.130999997       3.79724916E-05
  0.131500006       3.05128196E-05
  0.131999999       2.38264893E-05
  0.132499993       1.84380697E-05
  0.133000001       1.48214804E-05
  0.133499995       1.33764606E-05
  0.134000003       1.44018941E-05
  0.134499997       1.80819916E-05
  0.135000005       2.44734729E-05
  0.135499999       3.34985125E-05
  0.136000007       4.49541185E-05
  0.136500001       5.85163216E-05
  0.136999995       7.37612863E-05
  0.137500003       9.01858875E-05
  0.137999997       1.07237938E-04
  0.138500005       1.24347207E-04
  0.138999999       1.40956050E-04
  0.139500007       1.56551454E-04
  0.140000001       1.70699204E-04
  0.140499994       1.83066062E-04
  0.141000003       1.93440734E-04
  0.141499996       2.01746210E-04
  0.142000005       2.08048761E-04
  0.142499998       2.12559462E-04
  0.143000007       2.15613429E-04
  0.143500000       2.17662906E-04
  0.143999994       2.19250011E-04
  0.144500002       2.20975591E-04
  0.144999996       2.23468000E-04
  0.145500004       2.27349432E-04
  0.145999998       2.33201281E-04
  0.146500006       2.41534188E-04
  0.147000000       2.52754166E-04
  0.147499993       2.67142983E-04
  0.148000002       2.84851674E-04
  0.148499995       3.05876660E-04
  0.149000004       3.30082024E-04
  0.149499997       3.57195444E-04
  0.150000006       3.86815547E-04
  0.150500000       4.18474607E-04
  0.150999993       4.51631029E-04
  0.151500002       4.85714641E-04
  0.151999995       5.20174101E-04
  0.152500004       5.54504280E-04
  0.152999997       5.88276598E-04
  0.153500006       6.21180632E-04
  0.153999999       6.53038674E-04
  0.154499993       6.83809747E-04
  0.155000001       7.13646994E-04
  0.155499995       7.42815435E-04
  0.156000003       7.71762279E-04
  0.156499997       8.01054353E-04
  0.157000005       8.31350859E-04
  0.157499999       8.63399997E-04
  0.158000007       8.97977094E-04
  0.158500001       9.35849326E-04
  0.158999994       9.77754942E-04
  0.159500003       1.02433539E-03
  0.159999996       1.07615080E-03
  0.160500005       1.13361678E-03
  0.160999998       1.19699480E-03
  0.161500007       1.26639160E-03
  0.162000000       1.34173990E-03
  0.162499994       1.42284716E-03
  0.163000003       1.50938542E-03
  0.163499996       1.60088728E-03
  0.164000005       1.69686461E-03
  0.164499998       1.79676141E-03
  0.165000007       1.90000527E-03
  0.165500000       2.00612610E-03
  0.165999994       2.11467943E-03
  0.166500002       2.22539343E-03
  0.166999996       2.33809138E-03
  0.167500004       2.45276466E-03
  0.167999998       2.56957440E-03
  0.168500006       2.68888427E-03
  0.169000000       2.81119207E-03
  0.169499993       2.93717207E-03
  0.170000002       3.06763896E-03
  0.170499995       3.20348609E-03
  0.171000004       3.34562524E-03
  0.171499997       3.49508785E-03
  0.172000006       3.65278800E-03
  0.172499999       3.81968380E-03
  0.172999993       3.99656268E-03
  0.173500001       4.18418040E-03
  0.173999995       4.38307552E-03
  0.174500003       4.59368108E-03
  0.174999997       4.81635146E-03
  0.175500005       5.05119516E-03
  0.175999999       5.29821264E-03
  0.176499993       5.55732939E-03
  0.177000001       5.82839409E-03
  0.177499995       6.11124095E-03
  0.178000003       6.40562270E-03
  0.178499997       6.71138801E-03
  0.179000005       7.02841859E-03
  0.179499999       7.35666836E-03
  0.180000007       7.69631751E-03
  0.180500001       8.04750621E-03
  0.180999994       8.41074903E-03
  0.181500003       8.78653675E-03
  0.181999996       9.17562563E-03
  0.182500005       9.57870390E-03
  0.182999998       9.99697391E-03
  0.183500007       1.04313241E-02
  0.184000000       1.08829197E-02
  0.184499994       1.13528864E-02
  0.185000002       1.18424892E-02
  0.185499996       1.23528242E-02
  0.186000004       1.28850704E-02
  0.186499998       1.34401619E-02
  0.187000006       1.40190516E-02
  0.187500000       1.46226007E-02
  0.187999994       1.52515899E-02
  0.188500002       1.59065668E-02
  0.188999996       1.65882576E-02
  0.189500004       1.72974020E-02
  0.189999998       1.80340912E-02
  0.190500006       1.87991466E-02
  0.191000000       1.95926707E-02
  0.191499993       2.04156823E-02
  0.192000002       2.12685689E-02
  0.192499995       2.21519805E-02
  0.193000004       2.30666846E-02
  0.193499997       2.40136180E-02
  0.194000006       2.49937493E-02
  0.194499999       2.60082744E-02
  0.194999993       2.70583685E-02
  0.195500001       2.81448886E-02
  0.195999995       2.92696059E-02
  0.196500003       3.04344017E-02
  0.196999997       3.16397175E-02
  0.197500005       3.28881629E-02
  0.197999999       3.41803804E-02
  0.198500007       3.55183035E-02
  0.199000001       3.69030014E-02
  0.199499995       3.83358337E-02
  0.200000003       3.98181975E-02
  0.200499997       4.13516648E-02
  0.201000005       4.29369658E-02
  0.201499999       4.45753038E-02
  0.202000007       4.62679379E-02
  0.202500001       4.80152555E-02
  0.202999994       4.98193614E-02
  0.203500003       5.16806841E-02
  0.203999996       5.36007546E-02
  0.204500005       5.55809326E-02
  0.204999998       5.76227754E-02
  0.205500007       5.97272739E-02
  0.206000000       6.18958436E-02
  0.206499994       6.41307086E-02
  0.207000002       6.64328188E-02
  0.207499996       6.88051507E-02
  0.208000004       7.12490827E-02
  0.208499998       7.37670586E-02
  0.209000006       7.63620287E-02
  0.209500000       7.90345743E-02
  0.209999993       8.17878097E-02
  0.210500002       8.46241117E-02
  0.210999995       8.75430480E-02
  0.211500004       9.05485824E-02
  0.211999997       9.36415642E-02
  0.212500006       9.68234539E-02
  0.213000000      0.100097075    
  0.213499993      0.103462815    
  0.214000002      0.106920913    
  0.214499995      0.110471219    
  0.215000004      0.114120200    
  0.215499997      0.117863737    
  0.216000006      0.121705137    
  0.216499999      0.125642255    
  0.216999993      0.129680440    
  0.217500001      0.133817315    
  0.217999995      0.138055995    
  0.218500003      0.142399639    
  0.218999997      0.146845117    
  0.219500005      0.151396707    
  0.219999999      0.156057879    
  0.220500007      0.160824195    
  0.221000001      0.165708318    
  0.221499994      0.170704395    
  0.222000003      0.175816014    
  0.222499996      0.181041390    
  0.223000005      0.186387092    
  0.223499998      0.191854402    
  0.224000007      0.197440892    
  0.224500000      0.203156158    
  0.224999994      0.208995983    
  0.225500003      0.214956999    
  0.225999996      0.221047074    
  0.226500005      0.227264792    
  0.226999998      0.233608291    
  0.227500007      0.240074992    
  0.228000000      0.246670559    
  0.228499994      0.253386766    
  0.229000002      0.260226637    
  0.229499996      0.267189533    
  0.230000004      0.274272412    
  0.230499998      0.281471908    
  0.231000006      0.288796425    
  0.231500000      0.296230882    
  0.231999993      0.303783566    
  0.232500002      0.311454743    
  0.232999995      0.319241881    
  0.233500004      0.327142447    
  0.233999997      0.335154086    
  0.234500006      0.343285084    
  0.234999999      0.351522624    
  0.235499993      0.359873831    
  0.236000001      0.368326962    
  0.236499995      0.376888454    
  0.237000003      0.385558337    
  0.237499997      0.394326687    
  0.238000005      0.403206438    
  0.238499999      0.412184626    
  0.238999993      0.421247572    
  0.239500001      0.430415094    
  0.239999995      0.439670235    
  0.240500003      0.449002206    
  0.240999997      0.458420515    
  0.241500005      0.467899591    
  0.241999999      0.477455050    
  0.242500007      0.487066120    
  0.243000001      0.496729016    
  0.243499994      0.506431460    
  0.244000003      0.516177416    
  0.244499996      0.525959134    
  0.245000005      0.535767138    
  0.245499998      0.545594752    
  0.246000007      0.555423737    
  0.246500000      0.565247357    
  0.246999994      0.575068712    
  0.247500002      0.584868610    
  0.247999996      0.594651401    
  0.248500004      0.604397953    
  0.248999998      0.614087343    
  0.249500006      0.623739660    
  0.250000000      0.633326292    
  0.250499994      0.642834246    
  0.250999987      0.652266383    
  0.251500010      0.661602437    
  0.252000004      0.670827925    
  0.252499998      0.679962516    
  0.252999991      0.688956976    
  0.253500015      0.697823942    
  0.254000008      0.706529677    
  0.254500002      0.715086043    
  0.254999995      0.723462164    
  0.255499989      0.731667459    
  0.256000012      0.739655316    
  0.256500006      0.747435987    
  0.256999999      0.755001664    
  0.257499993      0.762341619    
  0.257999986      0.769394994    
  0.258500010      0.776140392    
  0.259000003      0.782575786    
  0.259499997      0.788693428    
  0.259999990      0.794467926    
  0.260500014      0.799863338    
  0.261000007      0.804849267    
  0.261500001      0.809440076    
  0.261999995      0.813613772    
  0.262499988      0.817334950    
  0.263000011      0.820578098    
  0.263500005      0.823366642    
  0.263999999      0.825637162    
  0.264499992      0.827412248    
  0.264999986      0.828659236    
  0.265500009      0.829364598    
  0.266000003      0.829496622    
  0.266499996      0.829050541    
  0.266999990      0.828051507    
  0.267500013      0.826400101    
  0.268000007      0.824122548    
  0.268500000      0.821178973    
  0.268999994      0.817562640    
  0.269499987      0.813281834    
  0.270000011      0.808265328    
  0.270500004      0.802457094    
  0.270999998      0.795858979    
  0.271499991      0.788436890    
  0.272000015      0.780211627    
  0.272500008      0.771122932    
  0.273000002      0.761169016    
  0.273499995      0.750271142    
  0.273999989      0.738467991    
  0.274500012      0.725731313    
  0.275000006      0.711968660    
  0.275500000      0.697259545    
  0.275999993      0.681519985    
  0.276499987      0.664714634    
  0.277000010      0.646909416    
  0.277500004      0.628035009    
  0.277999997      0.608084857    
  0.278499991      0.587074935    
  0.279000014      0.564975202    
  0.279500008      0.541694880    
  0.280000001      0.517307401    
  0.280499995      0.491782218    
  0.280999988      0.465070218    
  0.281500012      0.437214017    
  0.282000005      0.408194542    
  0.282499999      0.377921909    
  0.282999992      0.346482337    
  0.283499986      0.313786566    
  0.284000009      0.279865950    
  0.284500003      0.244690239    
  0.284999996      0.208207428    
  0.285499990      0.170427427    
  0.286000013      0.131370425    
  0.286500007       9.09737721E-02
  0.287000000       4.92616929E-02
  0.287499994       6.26491942E-03
  0.287999988      -3.80898714E-02
  0.288500011      -8.37628916E-02
  0.289000005     -0.130689785    
  0.289499998     -0.179089189    
  0.289999992     -0.228740484    
  0.290499985     -0.279637128    
  0.291000009     -0.331885695    
  0.291500002     -0.385479540    
  0.291999996     -0.440368980    
  0.292499989     -0.496536821    
  0.293000013     -0.553951323    
  0.293500006     -0.612660646    
  0.294000000     -0.672532439    
  0.294499993     -0.733643234    
  0.294999987     -0.796064556    
  0.295500010     -0.859530926    
  0.296000004     -0.924137712    
  0.296499997     -0.989977539    
  0.296999991      -1.05692875    
  0.297500014      -1.12489235    
  0.298000008      -1.19387650    
  0.298500001      -1.26403880    
  0.298999995      -1.33509707    
  0.299499989      -1.40704513    
  0.300000012      -1.48003638    
  0.300500005      -1.55398130    
  0.300999999      -1.62882149    
  0.301499993      -1.70442557    
  0.301999986      -1.78096414    
  0.302500010      -1.85817218    
  0.303000003      -1.93606126    
  0.303499997      -2.01448727    
  0.303999990      -2.09358072    
  0.304500014      -2.17320824    
  0.305000007      -2.25329018    
  0.305500001      -2.33362913    
  0.305999994      -2.41431475    
  0.306499988      -2.49528360    
  0.307000011      -2.57639050    
  0.307500005      -2.65759969    
  0.307999998      -2.73892522    
  0.308499992      -2.82030773    
  0.308999985      -2.90163326    
  0.309500009      -2.98270059    
  0.310000002      -3.06376481    
  0.310499996      -3.14447713    
  0.310999990      -3.22487831    
  0.311500013      -3.30488658    
  0.312000006      -3.38437748    
  0.312500000      -3.46354651    
  0.312999994      -3.54198575    
  0.313499987      -3.61967897    
  0.314000010      -3.69655299    
  0.314500004      -3.77249408    
  0.314999998      -3.84748316    
  0.315499991      -3.92126060    
  0.316000015      -3.99382043    
  0.316500008      -4.06508780    
  0.317000002      -4.13450670    
  0.317499995      -4.20252466    
  0.317999989      -4.26892281    
  0.318500012      -4.33354950    
  0.319000006      -4.39621067    
  0.319499999      -4.45705843    
  0.319999993      -4.51581097    
  0.320499986      -4.57266760    
  0.321000010      -4.62715960    
  0.321500003      -4.67958832    
  0.321999997      -4.72978640    
  0.322499990      -4.77745056    
  0.323000014      -4.82272482    
  0.323500007      -4.86561346    
  0.324000001      -4.90575171    
  0.324499995      -4.94315720    
  0.324999988      -4.97765017    
  0.325500011      -5.00908995    
  0.326000005      -5.03741693    
  0.326499999      -5.06239414    
  0.326999992      -5.08418608    
  0.327499986      -5.10235357    
  0.328000009      -5.11691427    
  0.328500003      -5.12783623    
  0.328999996      -5.13485527    
  0.329499990      -5.13797712    
  0.330000013      -5.13703918    
  0.330500007      -5.13202620    
  0.331000000      -5.12292957    
  0.331499994      -5.10969830    
  0.331999987      -5.09223890    
  0.332500011      -5.07056952    
  0.333000004      -5.04457331    
  0.333499998      -5.01468372    
  0.333999991      -4.98047256    
  0.334500015      -4.94196129    
  0.335000008      -4.89916945    
  0.335500002      -4.85194969    
  0.335999995      -4.80036259    
  0.336499989      -4.74440098    
  0.337000012      -4.68387222    
  0.337500006      -4.61889982    
  0.338000000      -4.54901648    
  0.338499993      -4.47456503    
  0.338999987      -4.39522743    
  0.339500010      -4.31102753    
  0.340000004      -4.22184324    
  0.340499997      -4.12776518    
  0.340999991      -4.02864265    
  0.341500014      -3.92451835    
  0.342000008      -3.81547666    
  0.342500001      -3.70149112    
  0.342999995      -3.58254886    
  0.343499988      -3.45871305    
  0.344000012      -3.33014822    
  0.344500005      -3.19685221    
  0.344999999      -3.05890441    
  0.345499992      -2.91661620    
  0.345999986      -2.76993275    
  0.346500009      -2.61918426    
  0.347000003      -2.46422124    
  0.347499996      -2.30515146    
  0.347999990      -2.14217830    
  0.348500013      -1.97538042    
  0.349000007      -1.80469334    
  0.349500000      -1.63023233    
  0.349999994      -1.45218265    
  0.350499988      -1.27052879    
  0.351000011      -1.08534384    
  0.351500005     -0.896670401    
  0.351999998     -0.704324484    
  0.352499992     -0.508612871    
  0.352999985     -0.309579045    
  0.353500009     -0.107387073    
  0.354000002       9.79396552E-02
  0.354499996      0.306333810    
  0.354999989      0.517473280    
  0.355500013      0.731279314    
  0.356000006      0.947470307    
  0.356500000       1.16593087    
  0.356999993       1.38632786    
  0.357499987       1.60842288    
  0.358000010       1.83200133    
  0.358500004       2.05691123    
  0.358999997       2.28288198    
  0.359499991       2.50934863    
  0.360000014       2.73660636    
  0.360500008       2.96400666    
  0.361000001       3.19142556    
  0.361499995       3.41859221    
  0.361999989       3.64560485    
  0.362500012       3.87194777    
  0.363000005       4.09760189    
  0.363499999       4.32205057    
  0.363999993       4.54558945    
  0.364499986       4.76776838    
  0.365000010       4.98848820    
  0.365500003       5.20733881    
  0.365999997       5.42438459    
  0.366499990       5.63923454    
  0.367000014       5.85196829    
  0.367500007       6.06197119    
  0.368000001       6.26904488    
  0.368499994       6.47334528    
  0.368999988       6.67408705    
  0.369500011       6.87139320    
  0.370000005       7.06503391    
  0.370499998       7.25442410    
  0.370999992       7.43975115    
  0.371499985       7.62080669    
  0.372000009       7.79696226    
  0.372500002       7.96815205    
  0.372999996       8.13439465    
  0.373499990       8.29509354    
  0.374000013       8.45023727    
  0.374500006       8.59930038    
  0.375000000       8.74228477    
  0.375499994       8.87893581    
  0.375999987       9.00896549    
  0.376500010       9.13214970    
  0.377000004       9.24822426    
  0.377499998       9.35716724    
  0.377999991       9.45864677    
  0.378500015       9.55262470    
  0.379000008       9.63873291    
  0.379500002       9.71712780    
  0.379999995       9.78755283    
  0.380499989       9.84962177    
  0.381000012       9.90364552    
  0.381500006       9.94897461    
  0.381999999       9.98594761    
  0.382499993       10.0144110    
  0.382999986       10.0345621    
  0.383500010       10.0457506    
  0.384000003       10.0485840    
  0.384499997       10.0422544    
  0.384999990       10.0275173    
  0.385500014       10.0038271    
  0.386000007       9.97086716    
  0.386500001       9.92902279    
  0.386999995       9.87825966    
  0.387499988       9.81798840    
  0.388000011       9.74880409    
  0.388500005       9.67034721    
  0.388999999       9.58223534    
  0.389499992       9.48480034    
  0.389999986       9.37761116    
  0.390500009       9.26146221    
  0.391000003       9.13533592    
  0.391499996       9.00012779    
  0.391999990       8.85564327    
  0.392500013       8.70160198    
  0.393000007       8.53872967    
  0.393500000       8.36701679    
  0.393999994       8.18634033    
  0.394499987       7.99742317    
  0.395000011       7.79995584    
  0.395500004       7.59378004    
  0.395999998       7.37995529    
  0.396499991       7.15814924    
  0.397000015       6.92874956    
  0.397500008       6.69250250    
  0.398000002       6.44898510    
  0.398499995       6.19842100    
  0.398999989       5.94132948    
  0.399500012       5.67766953    
  0.400000006       5.40774679    
  0.400500000       5.13154364    
  0.400999993       4.84895706    
  0.401499987       4.56064701    
  0.402000010       4.26648998    
  0.402500004       3.96686363    
  0.402999997       3.66185570    
  0.403499991       3.35191154    
  0.404000014       3.03710771    
  0.404500008       2.71768904    
  0.405000001       2.39433527    
  0.405499995       2.06770754    
  0.405999988       1.73730779    
  0.406500012       1.40429461    
  0.407000005       1.06866550    
  0.407499999      0.731111169    
  0.407999992      0.392031670    
  0.408499986       5.16860560E-02
  0.409000009     -0.289440632    
  0.409500003     -0.631036520    
  0.409999996     -0.972297847    
  0.410499990      -1.31365025    
  0.411000013      -1.65379751    
  0.411500007      -1.99345016    
  0.412000000      -2.33148146    
  0.412499994      -2.66847134    
  0.412999988      -3.00322890    
  0.413500011      -3.33621240    
  0.414000005      -3.66667128    
  0.414499998      -3.99422193    
  0.414999992      -4.31891727    
  0.415499985      -4.64009142    
  0.416000009      -4.95777321    
  0.416500002      -5.27128887    
  0.416999996      -5.58088017    
  0.417499989      -5.88550711    
  0.418000013      -6.18495893    
  0.418500006      -6.47862387    
  0.419000000      -6.76625204    
  0.419499993      -7.04779863    
  0.419999987      -7.32180738    
  0.420500010      -7.58858728    
  0.421000004      -7.84763575    
  0.421499997      -8.09827328    
  0.421999991      -8.34037113    
  0.422500014      -8.57383060    
  0.423000008      -8.79808617    
  0.423500001      -9.01270008    
  0.423999995      -9.21758842    
  0.424499989      -9.41293430    
  0.425000012      -9.59838581    
  0.425500005      -9.77362537    
  0.425999999      -9.93891239    
  0.426499993      -10.0942202    
  0.426999986      -10.2390881    
  0.427500010      -10.3733711    
  0.428000003      -10.4970608    