   0.00000000       0.00000000    
   5.00000024E-04   0.00000000    
   1.00000005E-03   0.00000000    
   1.50000001E-03   0.00000000    
   2.00000009E-03  -4.06891153E-11
   2.49999994E-03  -3.47126383E-10
   3.00000003E-03  -1.62320202E-09
   3.50000011E-03  -5.48699663E-09
   4.00000019E-03  -1.49414543E-08
   4.49999981E-03  -3.46593225E-08
   4.99999989E-03  -7.07555188E-08
   5.49999997E-03  -1.29660108E-07
   6.00000005E-03  -2.15726530E-07
   6.50000013E-03  -3.27343201E-07
   7.00000022E-03  -4.51569974E-07
   7.49999983E-03  -5.57696751E-07
   8.00000038E-03  -5.90569186E-07
   8.50000046E-03  -4.65006281E-07
   8.99999961E-03  -6.30496046E-08
   9.49999969E-03   7.63950993E-07
   9.99999978E-03   2.18640275E-06
   1.04999999E-02   4.37897825E-06
   1.09999999E-02   7.49358742E-06
   1.15000000E-02   1.16229285E-05
   1.20000001E-02   1.67561811E-05
   1.25000002E-02   2.27301989E-05
   1.30000003E-02   2.91812121E-05
   1.35000004E-02   3.55040029E-05
   1.40000004E-02   4.08263804E-05
   1.44999996E-02   4.40080839E-05
   1.49999997E-02   4.36721020E-05
   1.54999997E-02   3.82760336E-05
   1.60000008E-02   2.62276280E-05
   1.64999999E-02   6.04565230E-06
   1.70000009E-02  -2.34383733E-05
   1.75000001E-02  -6.28469934E-05
   1.79999992E-02  -1.12008194E-04
   1.85000002E-02  -1.69712817E-04
   1.89999994E-02  -2.33504557E-04
   1.95000004E-02  -2.99532549E-04
   1.99999996E-02  -3.62497842E-04
   2.05000006E-02  -4.15722898E-04
   2.09999997E-02  -4.51369327E-04
   2.15000007E-02  -4.60819516E-04
   2.19999999E-02  -4.35228518E-04
   2.25000009E-02  -3.66234017E-04
   2.30000000E-02  -2.46801530E-04
   2.34999992E-02  -7.21582401E-05
   2.40000002E-02   1.59242758E-04
   2.44999994E-02   4.44805046E-04
   2.50000004E-02   7.77003996E-04
   2.54999995E-02   1.14282849E-03
   2.60000005E-02   1.52353977E-03
   2.64999997E-02   1.89483329E-03
   2.70000007E-02   2.22746795E-03
   2.74999999E-02   2.48840568E-03
   2.80000009E-02   2.64246948E-03
   2.85000000E-02   2.65448587E-03
   2.89999992E-02   2.49184621E-03
   2.95000002E-02   2.12735846E-03
   2.99999993E-02   1.54223817E-03
   3.05000003E-02   7.29031512E-04
   3.09999995E-02  -3.05736088E-04
   3.15000005E-02  -1.53944711E-03
   3.20000015E-02  -2.93203071E-03
   3.24999988E-02  -4.42557549E-03
   3.29999998E-02  -5.94511814E-03
   3.35000008E-02  -7.40068872E-03
   3.40000018E-02  -8.69071204E-03
   3.44999991E-02  -9.70669929E-03
   3.50000001E-02  -1.03391139E-02
   3.55000012E-02  -1.04841758E-02
   3.59999985E-02  -1.00512980E-02
   3.64999995E-02  -8.97074118E-03
   3.70000005E-02  -7.20101036E-03
   3.75000015E-02  -4.73546144E-03
   3.79999988E-02  -1.60767336E-03
   3.84999998E-02   2.10506632E-03
   3.90000008E-02   6.28045574E-03
   3.95000018E-02   1.07525261E-02
   3.99999991E-02   1.53157860E-02
   4.05000001E-02   1.97323002E-02
   4.10000011E-02   2.37415414E-02
   4.14999984E-02   2.70727500E-02
   4.19999994E-02   2.94593349E-02
   4.25000004E-02   3.06545850E-02
   4.30000015E-02   3.04479897E-02
   4.34999987E-02   2.86811180E-02
   4.39999998E-02   2.52621919E-02
   4.45000008E-02   2.01782435E-02
   4.50000018E-02   1.35039845E-02
   4.54999991E-02   5.40650450E-03
   4.60000001E-02  -3.85480910E-03
   4.65000011E-02  -1.39336251E-02
   4.69999984E-02  -2.44073942E-02
   4.74999994E-02  -3.47932354E-02
   4.80000004E-02  -4.45686132E-02
   4.85000014E-02  -5.31959720E-02
   4.89999987E-02  -6.01500906E-02
   4.94999997E-02  -6.49470240E-02
   5.00000007E-02  -6.71729892E-02
   5.05000018E-02  -6.65114745E-02
   5.09999990E-02  -6.27671927E-02
   5.15000001E-02  -5.58848679E-02
   5.20000011E-02  -4.59619649E-02
   5.24999984E-02  -3.32538188E-02
   5.29999994E-02  -1.81706864E-02
   5.35000004E-02  -1.26613013E-03
   5.40000014E-02   1.67828128E-02
   5.44999987E-02   3.52034569E-02
   5.49999997E-02   5.31618185E-02
   5.55000007E-02   6.98022246E-02
   5.60000017E-02   8.42900947E-02
   5.64999990E-02   9.58558843E-02
   5.70000000E-02  0.103837639    
   5.75000010E-02  0.107719772    
   5.79999983E-02  0.107165933    
   5.84999993E-02  0.102043726    
   5.90000004E-02   9.24395025E-02
   5.95000014E-02   7.86623135E-02
   5.99999987E-02   6.12358525E-02
   6.04999997E-02   4.08788063E-02
   6.10000007E-02   1.84740499E-02
   6.15000017E-02  -4.97209514E-03
   6.19999990E-02  -2.83786021E-02
   6.25000000E-02  -5.06440401E-02
   6.30000010E-02  -7.07036406E-02
   6.35000020E-02  -8.75863731E-02
   6.40000030E-02 -0.100468285    
   6.44999966E-02 -0.108719647    
   6.49999976E-02 -0.111942835    
   6.54999986E-02 -0.109998547    
   6.59999996E-02 -0.103018627    
   6.65000007E-02  -9.14043710E-02
   6.70000017E-02  -7.58101568E-02
   6.75000027E-02  -5.71124069E-02
   6.80000037E-02  -3.63658741E-02
   6.84999973E-02  -1.47485845E-02
   6.89999983E-02   6.50111446E-03
   6.94999993E-02   2.61527356E-02
   7.00000003E-02   4.30530570E-02
   7.05000013E-02   5.61931357E-02
   7.10000023E-02   6.47690073E-02
   7.15000033E-02   6.82327226E-02
   7.19999969E-02   6.63304552E-02
   7.24999979E-02   5.91253601E-02
   7.29999989E-02   4.70035300E-02
   7.34999999E-02   3.06620039E-02
   7.40000010E-02   1.10792713E-02
   7.45000020E-02  -1.05307074E-02
   7.50000030E-02  -3.27790901E-02
   7.54999965E-02  -5.41742630E-02
   7.59999976E-02  -7.32020065E-02
   7.64999986E-02  -8.84097144E-02
   7.69999996E-02  -9.84901786E-02
   7.75000006E-02 -0.102360442    
   7.80000016E-02  -9.92314816E-02
   7.85000026E-02  -8.86647329E-02
   7.90000036E-02  -7.06121027E-02
   7.94999972E-02  -4.54368629E-02
   7.99999982E-02  -1.39137786E-02
   8.04999992E-02   2.27920488E-02
   8.10000002E-02   6.31674826E-02
   8.15000013E-02  0.105412774    
   8.20000023E-02  0.147520065    
   8.25000033E-02  0.187365308    
   8.29999968E-02  0.222809240    
   8.34999979E-02  0.251803070    
   8.39999989E-02  0.272493392    
   8.44999999E-02  0.283321440    
   8.50000009E-02  0.283111393    
   8.55000019E-02  0.271143556    
   8.60000029E-02  0.247207969    
   8.64999965E-02  0.211635381    
   8.69999975E-02  0.165304080    
   8.74999985E-02  0.109620340    
   8.79999995E-02   4.64738421E-02
   8.85000005E-02  -2.18316782E-02
   8.90000015E-02  -9.26691294E-02
   8.95000026E-02 -0.163197234    
   9.00000036E-02 -0.230483830    
   9.04999971E-02 -0.291637510    
   9.09999982E-02 -0.343942076    
   9.14999992E-02 -0.384988755    
   9.20000002E-02 -0.412798792    
   9.25000012E-02 -0.425931811    
   9.30000022E-02 -0.423574418    
   9.35000032E-02 -0.405603647    
   9.39999968E-02 -0.372624248    
   9.44999978E-02 -0.325973749    
   9.49999988E-02 -0.267697781    
   9.54999998E-02 -0.200493306    
   9.60000008E-02 -0.127622783    
   9.65000018E-02  -5.28011471E-02
   9.70000029E-02   1.99396703E-02
   9.74999964E-02   8.64036903E-02
   9.79999974E-02  0.142395526    
   9.84999985E-02  0.183888733    
   9.89999995E-02  0.207193732    
   9.95000005E-02  0.209113970    
  0.100000001      0.187086120    
  0.100500003      0.139298737    
  0.101000004       6.47803247E-02
  0.101499997      -3.65450829E-02
  0.101999998     -0.163838342    
  0.102499999     -0.315364063    
  0.103000000     -0.488547564    
  0.103500001     -0.680069268    
  0.104000002     -0.885990798    
  0.104500003      -1.10191190    
  0.104999997      -1.32314813    
  0.105499998      -1.54492509    
  0.105999999      -1.76258051    
  0.106500000      -1.97176087    
  0.107000001      -2.16861534    
  0.107500002      -2.34996319    
  0.108000003      -2.51344156    
  0.108499996      -2.65761590    
  0.108999997      -2.78205395    
  0.109499998      -2.88735938    
  0.109999999      -2.97516060    
  0.110500000      -3.04805279    
  0.111000001      -3.10950351    
  0.111500002      -3.16372609    
  0.112000003      -3.21550918    
  0.112499997      -3.27003193    
  0.112999998      -3.33267164    
  0.113499999      -3.40878582    
  0.114000000      -3.50352526    
  0.114500001      -3.62163854    
  0.115000002      -3.76731730    
  0.115500003      -3.94406271    
  0.115999997      -4.15459490    
  0.116499998      -4.40080214    
  0.116999999      -4.68373537    
  0.117500000      -5.00364971    
  0.118000001      -5.36008215    
  0.118500002      -5.75197697    
  0.119000003      -6.17782831    
  0.119499996      -6.63586807    
  0.119999997      -7.12423944    
  0.120499998      -7.64120293    
  0.120999999      -8.18531799    
  0.121500000      -8.75562096    
  0.122000001      -9.35176182    
  0.122500002      -9.97413731    
  0.123000003      -10.6239510    
  0.123499997      -11.3032722    
  0.123999998      -12.0150251    
  0.124499999      -12.7629232    
  0.125000000      -13.5514259    
  0.125499994      -14.3856010    
  0.126000002      -15.2710037    
  0.126499996      -16.2134972    
  0.127000004      -17.2191391    
  0.127499998      -18.2940025    
  0.128000006      -19.4440422    
  0.128500000      -20.6749954    
  0.128999993      -21.9923077    
  0.129500002      -23.4010506    
  0.129999995      -24.9059811    
  0.130500004      -26.5115128    
  0.130999997      -28.2218666    
  0.131500006      -30.0411282    
  0.131999999      -31.9734116    
  0.132499993      -34.0230560    
  0.133000001      -36.1947479    
  0.133499995      -38.4937782    
  0.134000003      -40.9261398    
  0.134499997      -43.4987488    
  0.135000005      -46.2195168    
  0.135499999      -49.0975075    
  0.136000007      -52.1428795    
  0.136500001      -55.3670654    
  0.136999995      -58.7825890    
  0.137500003      -62.4030266    
  0.137999997      -66.2429199    
  0.138500005      -70.3176117    
  0.138999999      -74.6430893    
  0.139500007      -79.2357712    
  0.140000001      -84.1123810    
  0.140499994      -89.2898407    
  0.141000003      -94.7848969    
  0.141499996      -100.614365    
  0.142000005      -106.794800    
  0.142499998      -113.342583    
  0.143000007      -120.274040    
  0.143500000      -127.605423    
  0.143999994      -135.353241    
  0.144500002      -143.534271    
  0.144999996      -152.166000    
  0.145500004      -161.266754    
  0.145999998      -170.856079    
  0.146500006      -180.955338    
  0.147000000      -191.587448    
  0.147499993      -202.777740    
  0.148000002      -214.553818    
  0.148499995      -226.946274    
  0.149000004      -239.988251    
  0.149499997      -253.716461    
  0.150000006      -268.170349    
  0.150500000      -283.392578    
  0.150999993      -299.429077    
  0.151500002      -316.328705    
  0.151999995      -334.143463    
  0.152500004      -352.928131    
  0.152999997      -372.740021    
  0.153500006      -393.638763    
  0.153999999      -415.686523    
  0.154499993      -438.947723    
  0.155000001      -463.488129    
  0.155499995      -489.375977    
  0.156000003      -516.681274    
  0.156499997      -545.475464    
  0.157000005      -575.832336    
  0.157499999      -607.827820    
  0.158000007      -641.539551    
  0.158500001      -677.047852    
  0.158999994      -714.435913    
  0.159500003      -753.789673    
  0.159999996      -795.198669    
  0.160500005      -838.757019    
  0.160999998      -884.561462    
  0.161500007      -932.714600    
  0.162000000      -983.324158    
  0.162499994      -1036.50244    
  0.163000003      -1092.36841    
  0.163499996      -1151.04663    
  0.164000005      -1212.66907    
  0.164499998      -1277.37329    
  0.165000007      -1345.30469    
  0.165500000      -1416.61633    
  0.165999994      -1491.46765    
  0.166500002      -1570.02698    
  0.166999996      -1652.46936    
  0.167500004      -1738.97913    
  0.167999998      -1829.74707    
  0.168500006      -1924.97400    
  0.169000000      -2024.86841    
  0.169499993      -2129.64551    
  0.170000002      -2239.53296    
  0.170499995      -2354.76343    
  0.171000004      -2475.58081    
  0.171499997      -2602.23877    
  0.172000006      -2734.99707    
  0.172499999      -2874.13013    
  0.172999993      -3019.91846    
  0.173500001      -3172.65454    
  0.173999995      -3332.64160    
  0.174500003      -3500.19678    
  0.174999997      -3675.64355    
  0.175500005      -3859.32349    
  0.175999999      -4051.58398    
  0.176499993      -4252.79248    
  0.177000001      -4463.32910    
  0.177499995      -4683.58203    
  0.178000003      -4913.96143    
  0.178499997      -5154.89014    
  0.179000005      -5406.81055    
  0.179499999      -5670.17334    
  0.180000007      -5945.45654    
  0.180500001      -6233.14990    
  0.180999994      -6533.76416    
  0.181500003      -6847.82764    
  0.181999996      -7175.89062    
  0.182500005      -7518.52539    
  0.182999998      -7876.32080    
  0.183500007      -8249.88672    
  0.184000000      -8639.86035    
  0.184499994      -9046.90332    
  0.185000002      -9471.69141    
  0.185499996      -9914.93359    
  0.186000004      -10377.3574    
  0.186499998      -10859.7148    
  0.187000006      -11362.7891    
  0.187500000      -11887.3857    
  0.187999994      -12434.3350    
  0.188500002      -13004.4951    
  0.188999996      -13598.7617    
  0.189500004      -14218.0479    
  0.189999998      -14863.2861    
  0.190500006      -15535.4619    
  0.191000000      -16235.5742    
  0.191499993      -16964.6602    
  0.192000002      -17723.7832    
  0.192499995      -18514.0449    
  0.193000004      -19336.5723    
  0.193499997      -20192.5352    
  0.194000006      -21083.1289    
  0.194499999      -22009.6035    
  0.194999993      -22973.2266    
  0.195500001      -23975.3066    
  0.195999995      -25017.1934    
  0.196500003      -26100.2754    
  0.196999997      -27226.0000    
  0.197500005      -28395.8145    
  0.197999999      -29611.2637    
  0.198500007      -30873.8770    
  0.199000001      -32185.2812    
  0.199499995      -33547.1055    
  0.200000003      -34961.0469    
  0.200499997      -36428.8398    
  0.201000005      -37952.2617    
  0.201499999      -39533.1719    
  0.202000007      -41173.4102    
  0.202500001      -42874.9141    
  0.202999994      -44639.6523    
  0.203500003      -46469.6562    
  0.203999996      -48366.9766    
  0.204500005      -50333.7109    
  0.204999998      -52372.0586    
  0.205500007      -54484.2227    
  0.206000000      -56672.4727    
  0.206499994      -58939.1055    
  0.207000002      -61286.4883    
  0.207499996      -63717.0469    
  0.208000004      -66233.2422    
  0.208499998      -68837.6016    
  0.209000006      -71532.7031    
  0.209500000      -74321.1953    
  0.209999993      -77205.7344    
  0.210500002      -80189.0703    
  0.210999995      -83274.0078    
  0.211500004      -86463.3672    
  0.211999997      -89760.0703    
  0.212500006      -93167.0312    
  0.213000000      -96687.3281    
  0.213499993      -100323.969    
  0.214000002      -104080.078    
  0.214499995      -107958.859    
  0.215000004      -111963.508    
  0.215499997      -116097.258    
  0.216000006      -120363.438    
  0.216499999      -124765.398    
  0.216999993      -129306.547    
  0.217500001      -133990.344    
  0.217999995      -138820.297    
  0.218500003      -143799.891    
  0.218999997      -148932.719    
  0.219500005      -154222.359    
  0.219999999      -159672.469    
  0.220500007      -165286.750    
  0.221000001      -171068.859    
  0.221499994      -177022.594    
  0.222000003      -183151.703    
  0.222499996      -189459.984    
  0.223000005      -195951.328    
  0.223499998      -202629.484    
  0.224000007      -209498.328    
  0.224500000      -216561.891    
  0.224999994      -223823.953    
  0.225500003      -231288.469    
  0.225999996      -238959.391    
  0.226500005      -246840.609    
  0.226999998      -254935.984    
  0.227500007      -263249.562    
  0.228000000      -271785.156    
  0.228499994      -280546.812    
  0.229000002      -289538.469    
  0.229499996      -298763.594    
  0.230000004      -308226.406    
  0.230499998      -317930.625    
  0.231000006      -327879.844    
  0.231500000      -338078.000    
  0.231999993      -348528.469    
  0.232500002      -359235.188    
  0.232999995      -370201.406    
  0.233500004      -381430.875    
  0.233999997      -392926.812    
  0.234500006      -404692.469    
  0.234999999      -416731.219    
  0.235499993      -429046.031    
  0.236000001      -441639.938    
  0.236499995      -454516.062    
  0.237000003      -467676.969    
  0.237499997      -481125.469    
  0.238000005      -494863.906    
  0.238499999      -508894.750    
  0.238999993      -523220.125    
  0.239500001      -537842.250    
  0.239999995      -552762.875    
  0.240500003      -567983.750    
  0.240999997      -583506.125    
  0.241500005      -599331.812    
  0.241999999      -615460.938    
  0.242500007      -631895.500    
  0.243000001      -648635.438    
  0.243499994      -665680.938    
  0.244000003      -683032.375    
  0.244499996      -700689.750    
  0.245000005      -718652.375    
  0.245499998      -736919.250    
  0.246000007      -755489.812    
  0.246500000      -774362.875    
  0.246999994      -793536.188    
  0.247500002      -813007.938    
  0.247999996      -832775.562    
  0.248500004      -852836.312    
  0.248999998      -873187.625    
  0.249500006      -893825.312    
  0.250000000      -914745.875    
  0.250499994      -935944.562    
  0.250999987      -957417.375    
  0.251500010      -979158.875    
  0.252000004      -1001162.56    
  0.252499998      -1023423.25    
  0.252999991      -1045933.94    
  0.253500015      -1068687.25    
  0.254000008      -1091675.88    
  0.254500002      -1114892.00    
  0.254999995      -1138325.88    
  0.255499989      -1161968.75    
  0.256000012      -1185810.88    
  0.256500006      -1209841.00    
  0.256999999      -1234049.88    
  0.257499993      -1258423.62    
  0.257999986      -1282951.12    
  0.258500010      -1307620.25    
  0.259000003      -1332416.38    
  0.259499997      -1357325.50    
  0.259999990      -1382332.62    
  0.260500014      -1407422.75    
  0.261000007      -1432579.50    
  0.261500001      -1457786.12    
  0.261999995      -1483024.25    
  0.262499988      -1508277.00    
  0.263000011      -1533525.62    
  0.263500005      -1558748.75    
  0.263999999      -1583925.50    
  0.264499992      -1609038.00    
  0.264999986      -1634061.12    
  0.265500009      -1658972.38    
  0.266000003      -1683749.25    
  0.266499996      -1708367.62    
  0.266999990      -1732799.88    
  0.267500013      -1757021.75    
  0.268000007      -1781006.25    
  0.268500000      -1804726.12    
  0.268999994      -1828152.12    
  0.269499987      -1851255.75    
  0.270000011      -1874006.62    
  0.270500004      -1896373.88    
  0.270999998      -1918326.50    
  0.271499991      -1939831.62    
  0.272000015      -1960857.12    
  0.272500008      -1981367.75    
  0.273000002      -2001327.50    
  0.273499995      -2020703.75    
  0.273999989      -2039458.62    
  0.274500012      -2057554.75    
  0.275000006      -2074954.88    
  0.275500000      -2091620.50    
  0.275999993      -2107512.75    
  0.276499987      -2122590.25    
  0.277000010      -2136814.50    
  0.277500004      -2150140.75    
  0.277999997      -2162529.00    
  0.278499991      -2173936.25    
  0.279000014      -2184318.00    
  0.279500008      -2193631.25    
  0.280000001      -2201830.50    
  0.280499995      -2208870.50    
  0.280999988      -2214705.50    
  0.281500012      -2219290.25    
  0.282000005      -2222575.75    
  0.282499999      -2224517.75    
  0.282999992      -2225065.00    
  0.283499986      -2224171.00    
  0.284000009      -2221787.50    
  0.284500003      -2217864.50    
  0.284999996      -2212353.00    
  0.285499990      -2205205.00    
  0.286000013      -2196369.75    
  0.286500007      -2185795.25    
  0.287000000      -2173435.50    
  0.287499994      -2159237.75    
  0.287999988      -2143154.25    
  0.288500011      -2125133.00    
  0.289000005      -2105124.75    
  0.289499998      -2083078.25    
  0.289999992      -2058945.38    
  0.290499985      -2032677.25    
  0.291000009      -2004223.12    
  0.291500002      -1973534.25    
  0.291999996      -1940565.12    
  0.292499989      -1905260.62    
  0.293000013      -1867579.25    
  0.293500006      -1827472.00    
  0.294000000      -1784891.62    
  0.294499993      -1739795.12    
  0.294999987      -1692134.25    
  0.295500010      -1641866.75    
  0.296000004      -1588949.62    
  0.296499997      -1533338.25    
  0.296999991      -1474995.50    
  0.297500014      -1413875.12    
  0.298000008      -1349943.25    
  0.298500001      -1283163.75    
  0.298999995      -1213494.62    
  0.299499989      -1140904.25    
  0.300000012      -1065361.38    
  0.300500005      -986828.438    
  0.300999999      -905278.688    
  0.301499993      -820687.688    
  0.301999986      -733019.500    
  0.302500010      -642255.875    
  0.303000003      -548371.062    
  0.303499997      -451345.594    
  0.303999990      -351159.906    
  0.304500014      -247800.719    
  0.305000007      -141248.734    
  0.305500001      -31494.2090    
  0.305999994       81471.3828    
  0.306499988       197656.781    
  0.307000011       317065.219    
  0.307500005       439695.438    
  0.307999998       565555.750    
  0.308499992       694630.500    
  0.308999985       826915.875    
  0.309500009       962405.688    
  0.310000002       1101089.00    
  0.310499996       1242945.75    
  0.310999990       1387957.50    
  0.311500013       1536103.62    
  0.312000006       1687357.00    
  0.312500000       1841693.38    
  0.312999994       1999074.88    
  0.313499987       2159466.50    
  0.314000010       2322837.50    
  0.314500004       2489140.00    
  0.314999998       2658324.25    
  0.315499991       2830346.00    
  0.316000015       3005145.75    
  0.316500008       3182671.75    
  0.317000002       3362857.75    
  0.317499995       3545641.75    
  0.317999989       3730957.25    
  0.318500012       3918724.75    
  0.319000006       4108873.50    
  0.319499999       4301320.50    
  0.319999993       4495979.50    
  0.320499986       4692761.00    
  0.321000010       4891570.50    
  0.321500003       5092313.50    
  0.321999997       5294887.50    
  0.322499990       5499194.00    
  0.323000014       5705113.00    
  0.323500007       5912538.00    
  0.324000001       6121350.50    
  0.324499995       6331434.00    
  0.324999988       6542660.00    
  0.325500011       6754899.00    
  0.326000005       6968021.50    
  0.326499999       7181889.00    
  0.326999992       7396362.50    
  0.327499986       7611303.50    
  0.328000009       7826557.50    
  0.328500003       8041978.50    
  0.328999996       8257412.50    
  0.329499990       8472697.00    
  0.330000013       8687672.00    
  0.330500007       8902171.00    
  0.331000000       9116028.00    
  0.331499994       9329071.00    
  0.331999987       9541126.00    
  0.332500011       9752016.00    
  0.333000004       9961559.00    
  0.333499998       10169571.0    
  0.333999991       10375868.0    
  0.334500015       10580258.0    
  0.335000008       10782557.0    
  0.335500002       10982564.0    
  0.335999995       11180095.0    
  0.336499989       11374938.0    
  0.337000012       11566907.0    
  0.337500006       11755801.0    
  0.338000000       11941414.0    
  0.338499993       12123542.0    
  0.338999987       12301987.0    
  0.339500010       12476540.0    
  0.340000004       12646995.0    
  0.340499997       12813147.0    
  0.340999991       12974788.0    
  0.341500014       13131714.0    
  0.342000008       13283714.0    
  0.342500001       13430586.0    
  0.342999995       13572120.0    
  0.343499988       13708104.0    
  0.344000012       13838341.0    
  0.344500005       13962623.0    
  0.344999999       14080751.0    
  0.345499992       14192514.0    
  0.345999986       14297723.0    
  0.346500009       14396168.0    
  0.347000003       14487660.0    
  0.347499996       14572003.0    
  0.347999990       14649004.0    
  0.348500013       14718472.0    
  0.349000007       14780230.0    
  0.349500000       14834089.0    
  0.349999994       14879876.0    
  0.350499988       14917409.0    
  0.351000011       14946520.0    
  0.351500005       14967040.0    
  0.351999998       14978811.0    
  0.352499992       14981672.0    
  0.352999985       14975473.0    
  0.353500009       14960061.0    
  0.354000002       14935299.0    
  0.354499996       14901045.0    
  0.354999989       14857165.0    
  0.355500013       14803543.0    
  0.356000006       14740054.0    
  0.356500000       14666587.0    
  0.356999993       14583031.0    
  0.357499987       14489280.0    
  0.358000010       14385257.0    
  0.358500004       14270866.0    
  0.358999997       14146037.0    
  0.359499991       14010685.0    
  0.360000014       13864763.0    
  0.360500008       13708208.0    
  0.361000001       13540970.0    
  0.361499995       13363019.0    
  0.361999989       13174326.0    
  0.362500012       12974860.0    
  0.363000005       12764619.0    
  0.363499999       12543593.0    
  0.363999993       12311795.0    
  0.364499986       12069230.0    
  0.365000010       11815931.0    
  0.365500003       11551933.0    
  0.365999997       11277264.0    
  0.366499990       10991989.0    
  0.367000014       10696171.0    
  0.367500007       10389874.0    
  0.368000001       10073188.0    
  0.368499994       9746200.00    
  0.368999988       9409002.00    
  0.369500011       9061722.00    
  0.370000005       8704467.00    
  0.370499998       8337373.00    
  0.370999992       7960575.50    
  0.371499985       7574231.00    
  0.372000009       7178496.00    
  0.372500002       6773541.00    
  0.372999996       6359550.00    
  0.373499990       5936709.00    
  0.374000013       5505221.50    
  0.374500006       5065281.00    
  0.375000000       4617123.50    
  0.375499994       4160971.75    
  0.375999987       3697061.25    
  0.376500010       3225640.25    
  0.377000004       2746960.75    
  0.377499998       2261288.75    
  0.377999991       1768895.38    
  0.378500015       1270070.38    
  0.379000008       765101.125    
  0.379500002       254288.938    
  0.379999995      -262065.562    
  0.380499989      -783646.750    
  0.381000012      -1310126.00    
  0.381500006      -1841183.00    
  0.381999999      -2376474.50    
  0.382499993      -2915651.25    
  0.382999986      -3458367.00    
  0.383500010      -4004268.75    
  0.384000003      -4552984.00    
  0.384499997      -5104154.50    
  0.384999990      -5657394.50    
  0.385500014      -6212329.00    
  0.386000007      -6768575.00    
  0.386500001      -7325734.50    
  0.386999995      -7883414.00    
  0.387499988      -8441236.00    
  0.388000011      -8998781.00    
  0.388500005      -9555649.00    
  0.388999999      -10111442.0    
  0.389499992      -10665740.0    
  0.389999986      -11218137.0    
  0.390500009      -11768219.0    
  0.391000003      -12315569.0    
  0.391499996      -12859767.0    
  0.391999990      -13400397.0    
  0.392500013      -13937048.0    
  0.393000007      -14469285.0    
  0.393500000      -14996698.0    
  0.393999994      -15518879.0    
  0.394499987      -16035406.0    
  0.395000011      -16545863.0    
  0.395500004      -17049824.0    
  0.395999998      -17546902.0    
  0.396499991      -18036682.0    
  0.397000015      -18518762.0    
  0.397500008      -18992730.0    
  0.398000002      -19458206.0    
  0.398499995      -19914792.0    
  0.398999989      -20362106.0    
  0.399500012      -20799764.0    
  0.400000006      -21227392.0    
  0.400500000      -21644636.0    
  0.400999993      -22051114.0    
  0.401499987      -22446480.0    
  0.402000010      -22830386.0    
  0.402500004      -23202500.0    
  0.402999997      -23562474.0    
  0.403499991      -23909978.0    
  0.404000014      -24244710.0    
  0.404500008      -24566366.0    
  0.405000001      -24874624.0    
  0.405499995      -25169214.0    
  0.405999988      -25449838.0    
  0.406500012      -25716248.0    
  0.407000005      -25968162.0    
  0.407499999      -26205352.0    
  0.407999992      -26427562.0    
  0.408499986      -26634560.0    
  0.409000009      -26826160.0    
  0.409500003      -27002134.0    
  0.409999996      -27162296.0    
  0.410499990      -27306472.0    
  0.411000013      -27434508.0    
  0.411500007      -27546236.0    
  0.412000000      -27641524.0    
  0.412499994      -27720242.0    
  0.412999988      -27782288.0    
  0.413500011      -27827544.0    
  0.414000005      -27855958.0    
  0.414499998      -27867424.0    
  0.414999992      -27861904.0    
  0.415499985      -27839342.0    
  0.416000009      -27799702.0    
  0.416500002      -27742986.0    
  0.416999996      -27669180.0    
  0.417499989      -27578280.0    
  0.418000013      -27470316.0    
  0.418500006      -27345338.0    
  0.419000000      -27203378.0    
  0.419499993      -27044518.0    
  0.419999987      -26868812.0    
  0.420500010      -26676378.0    
  0.421000004      -26467318.0    
  0.421499997      -26241730.0    
  0.421999991      -25999782.0    
  0.422500014      -25741600.0    
  0.423000008      -25467356.0    
  0.423500001      -25177228.0    
  0.423999995      -24871400.0    
  0.424499989      -24550080.0    
  0.425000012      -24213488.0    
  0.425500005      -23861852.0    
  0.425999999      -23495412.0    
  0.426499993      -23114422.0    
  0.426999986      -22719154.0    
  0.427500010      -22309880.0    
  0.428000003      -21886894.0    