   0.00000000       0.00000000    
   5.00000024E-04   0.00000000    
   1.00000005E-03   0.00000000    
   1.50000001E-03   2.15329328E-15
   2.00000009E-03   1.42760627E-14
   2.49999994E-03   5.29951822E-14
   3.00000003E-03   1.44035378E-13
   3.50000011E-03   3.16627204E-13
   4.00000019E-03   5.89017387E-13
   4.49999981E-03   9.42846278E-13
   4.99999989E-03   1.28598770E-12
   5.49999997E-03   1.40645004E-12
   6.00000005E-03   9.23952429E-13
   6.50000013E-03  -7.49412034E-13
   7.00000022E-03  -4.42333106E-12
   7.49999983E-03  -1.10986342E-11
   8.00000038E-03  -2.18708298E-11
   8.50000046E-03  -3.77492378E-11
   8.99999961E-03  -5.93804728E-11
   9.49999969E-03  -8.66773528E-11
   9.99999978E-03  -1.18372687E-10
   1.04999999E-02  -1.51539406E-10
   1.09999999E-02  -1.81143864E-10
   1.15000000E-02  -1.99721073E-10
   1.20000001E-02  -1.97282385E-10
   1.25000002E-02  -1.61571881E-10
   1.30000003E-02  -7.87836185E-11
   1.35000004E-02   6.51706328E-11
   1.40000004E-02   2.82802365E-10
   1.44999996E-02   5.82613624E-10
   1.49999997E-02   9.66204672E-10
   1.54999997E-02   1.42512191E-09
   1.60000008E-02   1.93775640E-09
   1.64999999E-02   2.46670040E-09
   1.70000009E-02   2.95703662E-09
   1.75000001E-02   3.33607741E-09
   1.79999992E-02   3.51505758E-09
   1.85000002E-02   3.39322326E-09
   1.89999994E-02   2.86457680E-09
   1.95000004E-02   1.82737925E-09
   1.99999996E-02   1.96180724E-10
   2.05000006E-02  -2.08414486E-09
   2.09999997E-02  -5.02325781E-09
   2.15000007E-02  -8.57035243E-09
   2.19999999E-02  -1.26007969E-08
   2.25000009E-02  -1.69062524E-08
   2.30000000E-02  -2.11900275E-08
   2.34999992E-02  -2.50695305E-08
   2.40000002E-02  -2.80873298E-08
   2.44999994E-02  -2.97317850E-08
   2.50000004E-02  -2.94677918E-08
   2.54999995E-02  -2.67770446E-08
   2.60000005E-02  -2.12065050E-08
   2.64999997E-02  -1.24225368E-08
   2.70000007E-02  -2.67235567E-10
   2.74999999E-02   1.51873358E-08
   2.80000009E-02   3.35923396E-08
   2.85000000E-02   5.42878134E-08
   2.89999992E-02   7.62866748E-08
   2.95000002E-02   9.82815109E-08
   2.99999993E-02   1.18678386E-07
   3.05000003E-02   1.35659818E-07
   3.09999995E-02   1.47277305E-07
   3.15000005E-02   1.51571413E-07
   3.20000015E-02   1.46715038E-07
   3.24999988E-02   1.31172285E-07
   3.29999998E-02   1.03863961E-07
   3.35000008E-02   6.43272600E-08
   3.40000018E-02   1.28575088E-08
   3.44999991E-02  -4.93823862E-08
   3.50000001E-02  -1.20298253E-07
   3.55000012E-02  -1.96856746E-07
   3.59999985E-02  -2.75145254E-07
   3.64999995E-02  -3.50502148E-07
   3.70000005E-02  -4.17719917E-07
   3.75000015E-02  -4.71316326E-07
   3.79999988E-02  -5.05862999E-07
   3.84999998E-02  -5.16356351E-07
   3.90000008E-02  -4.98608870E-07
   3.95000018E-02  -4.49638236E-07
   3.99999991E-02  -3.68022000E-07
   4.05000001E-02  -2.54193594E-07
   4.10000011E-02  -1.10648500E-07
   4.14999984E-02   5.79645558E-08
   4.19999994E-02   2.44884205E-07
   4.25000004E-02   4.41424703E-07
   4.30000015E-02   6.37312894E-07
   4.34999987E-02   8.21169806E-07
   4.39999998E-02   9.81113430E-07
   4.45000008E-02   1.10546330E-06
   4.50000018E-02   1.18349988E-06
   4.54999991E-02   1.20623963E-06
   4.60000001E-02   1.16717013E-06
   4.65000011E-02   1.06289440E-06
   4.69999984E-02   8.93629988E-07
   4.74999994E-02   6.63517994E-07
   4.80000004E-02   3.80702033E-07
   4.85000014E-02   5.71509382E-08
   4.89999987E-02  -2.91781902E-07
   4.94999997E-02  -6.48058631E-07
   5.00000007E-02  -9.91890261E-07
   5.05000018E-02  -1.30285707E-06
   5.09999990E-02  -1.56116050E-06
   5.15000001E-02  -1.74892648E-06
   5.20000011E-02  -1.85148133E-06
   5.24999984E-02  -1.85851184E-06
   5.29999994E-02  -1.76501590E-06
   5.35000004E-02  -1.57197667E-06
   5.40000014E-02  -1.28668057E-06
   5.44999987E-02  -9.22642016E-07
   5.49999997E-02  -4.99111934E-07
   5.55000007E-02  -4.01633109E-08
   5.60000017E-02   4.26596500E-07
   5.64999990E-02   8.71641021E-07
   5.70000000E-02   1.26536895E-06
   5.75000010E-02   1.58007117E-06
   5.79999983E-02   1.79190056E-06
   5.84999993E-02   1.88270133E-06
   5.90000004E-02   1.84156920E-06
   5.95000014E-02   1.66602695E-06
   5.99999987E-02   1.36269603E-06
   6.04999997E-02   9.47394938E-07
   6.10000007E-02   4.44626352E-07
   6.15000017E-02  -1.13559963E-07
   6.19999990E-02  -6.89285628E-07
   6.25000000E-02  -1.24106180E-06
   6.30000010E-02  -1.72638943E-06
   6.35000020E-02  -2.10459029E-06
   6.40000030E-02  -2.33968922E-06
   6.44999966E-02  -2.40315603E-06
   6.49999976E-02  -2.27631836E-06
   6.54999986E-02  -1.95226107E-06
   6.59999996E-02  -1.43705370E-06
   6.65000007E-02  -7.50187439E-07
   6.70000017E-02   7.58508989E-08
   6.75000027E-02   9.96897484E-07
   6.80000037E-02   1.95927169E-06
   6.84999973E-02   2.90269395E-06
   6.89999983E-02   3.76380558E-06
   6.94999993E-02   4.48008404E-06
   7.00000003E-02   4.99393173E-06
   7.05000013E-02   5.25666792E-06
   7.10000023E-02   5.23215795E-06
   7.15000033E-02   4.89983586E-06
   7.19999969E-02   4.25688586E-06
   7.24999979E-02   3.31938963E-06
   7.29999989E-02   2.12234522E-06
   7.34999999E-02   7.18467845E-07
   7.40000010E-02  -8.24171480E-07
   7.45000020E-02  -2.42559599E-06
   7.50000030E-02  -3.99827559E-06
   7.54999965E-02  -5.45214107E-06
   7.59999976E-02  -6.69997416E-06
   7.64999986E-02  -7.66283574E-06
   7.69999996E-02  -8.27519852E-06
   7.75000006E-02  -8.48943819E-06
   7.80000016E-02  -8.27937856E-06
   7.85000026E-02  -7.64264314E-06
   7.90000036E-02  -6.60160549E-06
   7.94999972E-02  -5.20283947E-06
   7.99999982E-02  -3.51506355E-06
   8.04999992E-02  -1.62565482E-06
   8.10000002E-02   3.64086873E-07
   8.15000013E-02   2.34466256E-06
   8.20000023E-02   4.20475317E-06
   8.25000033E-02   5.83786550E-06
   8.29999968E-02   7.14884891E-06
   8.34999979E-02   8.05984200E-06
   8.39999989E-02   8.51528694E-06
   8.44999999E-02   8.48568015E-06
   8.50000009E-02   7.96977474E-06
   8.55000019E-02   6.99507473E-06
   8.60000029E-02   5.61660045E-06
   8.64999965E-02   3.91389267E-06
   8.69999975E-02   1.98650446E-06
   8.74999985E-02  -5.18124992E-08
   8.79999995E-02  -2.07986272E-06
   8.85000005E-02  -3.97625899E-06
   8.90000015E-02  -5.62678406E-06
   8.95000026E-02  -6.93130187E-06
   9.00000036E-02  -7.80987102E-06
   9.04999971E-02  -8.20761306E-06
   9.09999982E-02  -8.09799440E-06
   9.14999992E-02  -7.48439334E-06
   9.20000002E-02  -6.39974860E-06
   9.25000012E-02  -4.90434832E-06
   9.30000022E-02  -3.08193717E-06
   9.35000032E-02  -1.03432296E-06
   9.39999968E-02   1.12511566E-06
   9.44999978E-02   3.27860766E-06
   9.49999988E-02   5.31140540E-06
   9.54999998E-02   7.11886014E-06
   9.60000008E-02   8.61285935E-06
   9.65000018E-02   9.72695216E-06
   9.70000029E-02   1.04201199E-05
   9.74999964E-02   1.06786792E-05
   9.79999974E-02   1.05163663E-05
   9.84999985E-02   9.97254756E-06
   9.89999995E-02   9.10873860E-06
   9.95000005E-02   8.00359885E-06
  0.100000001       6.74687271E-06
  0.100500003       5.43266833E-06
  0.101000004       4.15252953E-06
  0.101499997       2.98889199E-06
  0.101999998       2.00923955E-06
  0.102499999       1.26161319E-06
  0.103000000       7.71603482E-07
  0.103500001       5.41161967E-07
  0.104000002       5.49323943E-07
  0.104500003       7.54687960E-07
  0.104999997       1.09969596E-06
  0.105499998       1.51604149E-06
  0.105999999       1.93131905E-06
  0.106500000       2.27584974E-06
  0.107000001       2.48957645E-06
  0.107500002       2.52824975E-06
  0.108000003       2.36863593E-06
  0.108499996       2.01190164E-06
  0.108999997       1.48532263E-06
  0.109499998       8.41754570E-07
  0.109999999       1.57146502E-07
  0.110500000      -4.74259650E-07
  0.111000001      -9.46358966E-07
  0.111500002      -1.14878856E-06
  0.112000003      -9.75731155E-07
  0.112499997      -3.34688281E-07
  0.112999998       8.44990154E-07
  0.113499999       2.60485467E-06
  0.114000000       4.95148151E-06
  0.114500001       7.85297561E-06
  0.115000002       1.12381758E-05
  0.115500003       1.49981033E-05
  0.115999997       1.89908442E-05
  0.116499998       2.30486730E-05
  0.116999999       2.69874727E-05
  0.117500000       3.06183210E-05
  0.118000001       3.37597157E-05
  0.118500002       3.62504434E-05
  0.119000003       3.79617923E-05
  0.119499996       3.88082772E-05
  0.119999997       3.87567416E-05
  0.120499998       3.78319419E-05
  0.120999999       3.61196326E-05
  0.121500000       3.37648489E-05
  0.122000001       3.09670759E-05
  0.122500002       2.79719916E-05
  0.123000003       2.50589437E-05
  0.123499997       2.25267540E-05
  0.123999998       2.06761233E-05
  0.124499999       1.97932404E-05
  0.125000000       2.01310122E-05
  0.125499994       2.18923269E-05
  0.126000002       2.52170266E-05
  0.126499996       3.01693490E-05
  0.127000004       3.67318171E-05
  0.127499998       4.48016763E-05
  0.128000006       5.41939335E-05
  0.128500000       6.46485714E-05
  0.128999993       7.58424721E-05
  0.129500002       8.74066318E-05
  0.129999995       9.89452819E-05
  0.130500004       1.10058289E-04
  0.130999997       1.20366174E-04
  0.131500006       1.29531720E-04
  0.131999999       1.37283190E-04
  0.132499993       1.43433688E-04
  0.133000001       1.47897255E-04
  0.133499995       1.50696593E-04
  0.134000003       1.51970497E-04
  0.134499997       1.51969682E-04
  0.135000005       1.51050714E-04
  0.135499999       1.49661602E-04
  0.136000007       1.48320585E-04
  0.136500001       1.47594124E-04
  0.136999995       1.48069128E-04
  0.137500003       1.50319946E-04
  0.137999997       1.54883164E-04
  0.138500005       1.62227938E-04
  0.138999999       1.72729851E-04
  0.139500007       1.86648540E-04
  0.140000001       2.04113894E-04
  0.140499994       2.25115131E-04
  0.141000003       2.49503762E-04
  0.141499996       2.76993203E-04
  0.142000005       3.07178096E-04
  0.142499998       3.39551101E-04
  0.143000007       3.73533374E-04
  0.143500000       4.08498803E-04
  0.143999994       4.43811237E-04
  0.144500002       4.78866161E-04
  0.144999996       5.13115316E-04
  0.145500004       5.46107476E-04
  0.145999998       5.77510160E-04
  0.146500006       6.07138209E-04
  0.147000000       6.34963857E-04
  0.147499993       6.61128899E-04
  0.148000002       6.85945561E-04
  0.148499995       7.09881424E-04
  0.149000004       7.33545865E-04
  0.149499997       7.57663453E-04
  0.150000006       7.83041760E-04
  0.150500000       8.10539001E-04
  0.150999993       8.41027591E-04
  0.151500002       8.75348283E-04
  0.151999995       9.14276228E-04
  0.152500004       9.58490476E-04
  0.152999997       1.00854679E-03
  0.153500006       1.06484187E-03
  0.153999999       1.12761313E-03
  0.154499993       1.19692704E-03
  0.155000001       1.27269106E-03
  0.155499995       1.35465141E-03
  0.156000003       1.44242134E-03
  0.156499997       1.53553311E-03
  0.157000005       1.63342268E-03
  0.157499999       1.73551345E-03
  0.158000007       1.84123463E-03
  0.158500001       1.95007154E-03
  0.158999994       2.06158683E-03
  0.159500003       2.17548641E-03
  0.159999996       2.29161326E-03
  0.160500005       2.40996759E-03
  0.160999998       2.53076735E-03
  0.161500007       2.65436410E-03
  0.162000000       2.78133806E-03
  0.162499994       2.91239540E-03
  0.163000003       3.04838712E-03
  0.163499996       3.19025712E-03
  0.164000005       3.33904731E-03
  0.164499998       3.49580939E-03
  0.165000007       3.66156688E-03
  0.165500000       3.83733935E-03
  0.165999994       4.02402552E-03
  0.166500002       4.22243262E-03
  0.166999996       4.43323562E-03
  0.167500004       4.65693185E-03
  0.167999998       4.89393203E-03
  0.168500006       5.14442194E-03
  0.169000000       5.40849380E-03
  0.169499993       5.68616856E-03
  0.170000002       5.97731816E-03
  0.170499995       6.28180895E-03
  0.171000004       6.59947516E-03
  0.171499997       6.93020225E-03
  0.172000006       7.27394316E-03
  0.172499999       7.63074588E-03
  0.172999993       8.00075382E-03
  0.173500001       8.38434696E-03
  0.173999995       8.78200214E-03
  0.174500003       9.19437688E-03
  0.174999997       9.62235965E-03
  0.175500005       1.00669172E-02
  0.175999999       1.05292723E-02
  0.176499993       1.10106505E-02
  0.177000001       1.15125477E-02
  0.177499995       1.20362844E-02
  0.178000003       1.25834439E-02
  0.178499997       1.31553775E-02
  0.179000005       1.37533871E-02
  0.179499999       1.43791297E-02
  0.180000007       1.50335487E-02
  0.180500001       1.57179274E-02
  0.180999994       1.64332390E-02
  0.181500003       1.71804409E-02
  0.181999996       1.79604068E-02
  0.182500005       1.87737755E-02
  0.182999998       1.96214523E-02
  0.183500007       2.05037072E-02
  0.184000000       2.14215107E-02
  0.184499994       2.23752707E-02
  0.185000002       2.33661328E-02
  0.185499996       2.43945923E-02
  0.186000004       2.54620630E-02
  0.186499998       2.65692919E-02
  0.187000006       2.77177040E-02
  0.187500000       2.89087426E-02
  0.187999994       3.01442444E-02
  0.188500002       3.14256214E-02
  0.188999996       3.27546932E-02
  0.189500004       3.41340788E-02
  0.189999998       3.55653949E-02
  0.190500006       3.70508917E-02
  0.191000000       3.85927893E-02
  0.191499993       4.01936024E-02
  0.192000002       4.18553911E-02
  0.192499995       4.35804389E-02
  0.193000004       4.53707799E-02
  0.193499997       4.72285897E-02
  0.194000006       4.91560437E-02
  0.194499999       5.11551425E-02
  0.194999993       5.32276742E-02
  0.195500001       5.53758182E-02
  0.195999995       5.76010421E-02
  0.196500003       5.99057749E-02
  0.196999997       6.22914769E-02
  0.197500005       6.47609383E-02
  0.197999999       6.73150048E-02
  0.198500007       6.99562654E-02
  0.199000001       7.26868808E-02
  0.199499995       7.55100176E-02
  0.200000003       7.84270167E-02
  0.200499997       8.14407319E-02
  0.201000005       8.45545679E-02
  0.201499999       8.77704099E-02
  0.202000007       9.10911486E-02
  0.202500001       9.45208594E-02
  0.202999994       9.80614498E-02
  0.203500003      0.101716712    
  0.203999996      0.105489217    
  0.204500005      0.109382734    
  0.204999998      0.113399006    
  0.205500007      0.117543504    
  0.206000000      0.121817261    
  0.206499994      0.126225054    
  0.207000002      0.130769417    
  0.207499996      0.135453418    
  0.208000004      0.140280381    
  0.208499998      0.145252839    
  0.209000006      0.150374636    
  0.209500000      0.155648276    
  0.209999993      0.161076114    
  0.210500002      0.166661859    
  0.210999995      0.172408849    
  0.211500004      0.178320274    
  0.211999997      0.184397221    
  0.212500006      0.190646827    
  0.213000000      0.197068453    
  0.213499993      0.203668967    
  0.214000002      0.210448697    
  0.214499995      0.217410564    
  0.215000004      0.224560753    
  0.215499997      0.231900066    
  0.216000006      0.239431754    
  0.216499999      0.247162640    
  0.216999993      0.255091757    
  0.217500001      0.263221771    
  0.217999995      0.271557689    
  0.218500003      0.280101538    
  0.218999997      0.288854361    
  0.219500005      0.297824711    
  0.219999999      0.307010531    
  0.220500007      0.316415071    
  0.221000001      0.326042950    
  0.221499994      0.335892648    
  0.222000003      0.345970303    
  0.222499996      0.356280386    
  0.223000005      0.366818428    
  0.223499998      0.377588183    
  0.224000007      0.388592422    
  0.224500000      0.399829149    
  0.224999994      0.411302537    
  0.225500003      0.423017293    
  0.225999996      0.434969336    
  0.226500005      0.447164774    
  0.226999998      0.459595799    
  0.227500007      0.472270459    
  0.228000000      0.485189974    
  0.228499994      0.498347044    
  0.229000002      0.511745036    
  0.229499996      0.525388062    
  0.230000004      0.539270878    
  0.230499998      0.553397298    
  0.231000006      0.567766309    
  0.231500000      0.582370937    
  0.231999993      0.597220421    
  0.232500002      0.612300575    
  0.232999995      0.627624094    
  0.233500004      0.643176138    
  0.233999997      0.658964396    
  0.234500006      0.674976408    
  0.234999999      0.691218078    
  0.235499993      0.707672358    
  0.236000001      0.724340856    
  0.236499995      0.741217971    
  0.237000003      0.758296371    
  0.237499997      0.775566399    
  0.238000005      0.793028831    
  0.238499999      0.810670674    
  0.238999993      0.828488827    
  0.239500001      0.846471250    
  0.239999995      0.864603758    
  0.240500003      0.882884741    
  0.240999997      0.901296318    
  0.241500005      0.919842899    
  0.241999999      0.938507378    
  0.242500007      0.957284033    
  0.243000001      0.976150811    
  0.243499994      0.995130181    
  0.244000003       1.01417911    
  0.244499996       1.03327775    
  0.245000005       1.05246043    
  0.245499998       1.07169271    
  0.246000007       1.09094179    
  0.246500000       1.11022663    
  0.246999994       1.12950599    
  0.247500002       1.14877844    
  0.247999996       1.16800797    
  0.248500004       1.18718851    
  0.248999998       1.20630872    
  0.249500006       1.22532141    
  0.250000000       1.24420881    
  0.250499994       1.26296854    
  0.250999987       1.28154373    
  0.251500010       1.29994130    
  0.252000004       1.31811130    
  0.252499998       1.33604157    
  0.252999991       1.35370994    
  0.253500015       1.37108564    
  0.254000008       1.38811862    
  0.254500002       1.40483189    
  0.254999995       1.42115939    
  0.255499989       1.43711329    
  0.256000012       1.45262361    
  0.256500006       1.46770442    
  0.256999999       1.48230815    
  0.257499993       1.49641156    
  0.257999986       1.51000059    
  0.258500010       1.52302885    
  0.259000003       1.53549170    
  0.259499997       1.54731643    
  0.259999990       1.55851197    
  0.260500014       1.56903017    
  0.261000007       1.57883108    
  0.261500001       1.58786511    
  0.261999995       1.59612131    
  0.262499988       1.60350370    
  0.263000011       1.61000156    
  0.263500005       1.61552274    
  0.263999999       1.62012148    
  0.264499992       1.62364864    
  0.264999986       1.62610316    
  0.265500009       1.62747109    
  0.266000003       1.62764573    
  0.266499996       1.62665915    
  0.266999990       1.62444317    
  0.267500013       1.62095487    
  0.268000007       1.61620796    
  0.268500000       1.61006558    
  0.268999994       1.60257399    
  0.269499987       1.59368360    
  0.270000011       1.58332026    
  0.270500004       1.57153594    
  0.270999998       1.55819058    
  0.271499991       1.54333591    
  0.272000015       1.52690816    
  0.272500008       1.50883949    
  0.273000002       1.48914778    
  0.273499995       1.46772659    
  0.273999989       1.44449890    
  0.274500012       1.41940951    
  0.275000006       1.39246464    
  0.275500000       1.36359799    
  0.275999993       1.33269751    
  0.276499987       1.29986858    
  0.277000010       1.26491404    
  0.277500004       1.22789359    
  0.277999997       1.18869972    
  0.278499991       1.14732838    
  0.279000014       1.10371876    
  0.279500008       1.05791581    
  0.280000001       1.00978279    
  0.280499995      0.959420860    
  0.280999988      0.906659842    
  0.281500012      0.851570964    
  0.282000005      0.794045627    
  0.282499999      0.734112442    
  0.282999992      0.671806633    
  0.283499986      0.607107937    
  0.284000009      0.539977491    
  0.284500003      0.470312864    
  0.284999996      0.398176849    
  0.285499990      0.323543817    
  0.286000013      0.246466711    
  0.286500007      0.166881457    
  0.287000000       8.47145915E-02
  0.287499994      -2.05570414E-05
  0.287999988      -8.73720795E-02
  0.288500011     -0.177210003    
  0.289000005     -0.269658625    
  0.289499998     -0.364625514    
  0.289999992     -0.462212086    
  0.290499985     -0.562362671    
  0.291000009     -0.665124297    
  0.291500002     -0.770383596    
  0.291999996     -0.878271222    
  0.292499989     -0.988652050    
  0.293000013      -1.10148025    
  0.293500006      -1.21698260    
  0.294000000      -1.33486795    
  0.294499993      -1.45521808    
  0.294999987      -1.57788742    
  0.295500010      -1.70301676    
  0.296000004      -1.83028829    
  0.296499997      -1.95989108    
  0.296999991      -2.09167886    
  0.297500014      -2.22551084    
  0.298000008      -2.36155295    
  0.298500001      -2.49955583    
  0.298999995      -2.63952637    
  0.299499989      -2.78131866    
  0.300000012      -2.92494941    
  0.300500005      -3.07020545    
  0.300999999      -3.21730971    
  0.301499993      -3.36604619    
  0.301999986      -3.51624775    
  0.302500010      -3.66793275    
  0.303000003      -3.82080746    
  0.303499997      -3.97495794    
  0.303999990      -4.13031006    
  0.304500014      -4.28674507    
  0.305000007      -4.44397259    
  0.305500001      -4.60196304    
  0.305999994      -4.76067257    
  0.306499988      -4.91991615    
  0.307000011      -5.07958412    
  0.307500005      -5.23961401    
  0.307999998      -5.39964581    
  0.308499992      -5.55980921    
  0.308999985      -5.71982861    
  0.309500009      -5.87959623    
  0.310000002      -6.03887939    
  0.310499996      -6.19759274    
  0.310999990      -6.35567570    
  0.311500013      -6.51284218    
  0.312000006      -6.66921711    
  0.312500000      -6.82430649    
  0.312999994      -6.97815418    
  0.313499987      -7.13057184    
  0.314000010      -7.28108644    
  0.314500004      -7.42976332    
  0.314999998      -7.57671022    
  0.315499991      -7.72117853    
  0.316000015      -7.86337423    
  0.316500008      -8.00305176    
  0.317000002      -8.13987446    
  0.317499995      -8.27386284    
  0.317999989      -8.40455627    
  0.318500012      -8.53198624    
  0.319000006      -8.65587521    
  0.319499999      -8.77584076    
  0.319999993      -8.89196110    
  0.320499986      -9.00402355    
  0.321000010      -9.11162663    
  0.321500003      -9.21476269    
  0.321999997      -9.31312180    
  0.322499990      -9.40649033    
  0.323000014      -9.49466515    
  0.323500007      -9.57763004    
  0.324000001      -9.65503311    
  0.324499995      -9.72693443    
  0.324999988      -9.79300404    
  0.325500011      -9.85305405    
  0.326000005      -9.90691757    
  0.326499999      -9.95459366    
  0.326999992      -9.99569321    
  0.327499986      -10.0301018    
  0.328000009      -10.0577908    
  0.328500003      -10.0781612    
  0.328999996      -10.0915384    
  0.329499990      -10.0974636    
  0.330000013      -10.0959063    
  0.330500007      -10.0864716    
  0.331000000      -10.0692406    
  0.331499994      -10.0439987    
  0.331999987      -10.0104389    
  0.332500011      -9.96857738    
  0.333000004      -9.91821003    
  0.333499998      -9.85904789    
  0.333999991      -9.79133606    
  0.334500015      -9.71454144    
  0.335000008      -9.62905407    
  0.335500002      -9.53444290    
  0.335999995      -9.43058681    
  0.336499989      -9.31781292    
  0.337000012      -9.19570160    
  0.337500006      -9.06433105    
  0.338000000      -8.92368984    
  0.338499993      -8.77389145    
  0.338999987      -8.61467457    
  0.339500010      -8.44613457    
  0.340000004      -8.26838779    
  0.340499997      -8.08099556    
  0.340999991      -7.88431263    
  0.341500014      -7.67824841    
  0.342000008      -7.46280718    
  0.342500001      -7.23793840    
  0.342999995      -7.00371790    
  0.343499988      -6.75995970    
  0.344000012      -6.50682020    
  0.344500005      -6.24445724    
  0.344999999      -5.97288561    
  0.345499992      -5.69215488    
  0.345999986      -5.40244341    
  0.346500009      -5.10383368    
  0.347000003      -4.79639959    
  0.347499996      -4.48025322    
  0.347999990      -4.15586185    
  0.348500013      -3.82305646    
  0.349000007      -3.48229861    
  0.349500000      -3.13344145    
  0.349999994      -2.77712536    
  0.350499988      -2.41342902    
  0.351000011      -2.04267383    
  0.351500005      -1.66482604    
  0.351999998      -1.28023088    
  0.352499992     -0.889313817    
  0.352999985     -0.492071629    
  0.353500009      -8.90699029E-02
  0.354000002      0.319735765    
  0.354499996      0.733981550    
  0.354999989       1.15319753    
  0.355500013       1.57741499    
  0.356000006       2.00613856    
  0.356500000       2.43916368    
  0.356999993       2.87616539    
  0.357499987       3.31663156    
  0.358000010       3.76025653    
  0.358500004       4.20677757    
  0.358999997       4.65556574    
  0.359499991       5.10641432    
  0.360000014       5.55895805    
  0.360500008       6.01272774    
  0.361000001       6.46730614    
  0.361499995       6.92199469    
  0.361999989       7.37685490    
  0.362500012       7.83106947    
  0.363000005       8.28427124    
  0.363499999       8.73599243    
  0.363999993       9.18596745    
  0.364499986       9.63353825    
  0.365000010       10.0784597    
  0.365500003       10.5203114    
  0.365999997       10.9581251    
  0.366499990       11.3920650    
  0.367000014       11.8214884    
  0.367500007       12.2459726    
  0.368000001       12.6647882    
  0.368499994       13.0779476    
  0.368999988       13.4844751    
  0.369500011       13.8845882    
  0.370000005       14.2771873    
  0.370499998       14.6620369    
  0.370999992       15.0385609    
  0.371499985       15.4062271    
  0.372000009       15.7651472    
  0.372500002       16.1143665    
  0.372999996       16.4538174    
  0.373499990       16.7827282    
  0.374000013       17.1007843    
  0.374500006       17.4074059    
  0.375000000       17.7024059    
  0.375499994       17.9854546    
  0.375999987       18.2559910    
  0.376500010       18.5134449    
  0.377000004       18.7577133    
  0.377499998       18.9884338    
  0.377999991       19.2050686    
  0.378500015       19.4077396    
  0.379000008       19.5956554    
  0.379500002       19.7686043    
  0.379999995       19.9264336    
  0.380499989       20.0685444    
  0.381000012       20.1951637    
  0.381500006       20.3051338    
  0.381999999       20.3989410    
  0.382499993       20.4759369    
  0.382999986       20.5363369    
  0.383500010       20.5797081    
  0.384000003       20.6055641    
  0.384499997       20.6141891    
  0.384999990       20.6052780    
  0.385500014       20.5788994    
  0.386000007       20.5349064    
  0.386500001       20.4730892    
  0.386999995       20.3933887    
  0.387499988       20.2958260    
  0.388000011       20.1805019    
  0.388500005       20.0466251    
  0.388999999       19.8947010    
  0.389499992       19.7254124    
  0.389999986       19.5376129    
  0.390500009       19.3319588    
  0.391000003       19.1079464    
  0.391499996       18.8663349    
  0.391999990       18.6065121    
  0.392500013       18.3294010    
  0.393000007       18.0347958    
  0.393500000       17.7228508    
  0.393999994       17.3935070    
  0.394499987       17.0477810    
  0.395000011       16.6855793    
  0.395500004       16.3065968    
  0.395999998       15.9121428    
  0.396499991       15.5019360    
  0.397000015       15.0766668    
  0.397500008       14.6363783    
  0.398000002       14.1815920    
  0.398499995       13.7126474    
  0.398999989       13.2301598    
  0.399500012       12.7342367    
  0.400000006       12.2253551    
  0.400500000       11.7041712    
  0.400999993       11.1706915    
  0.401499987       10.6253862    
  0.402000010       10.0686789    
  0.402500004       9.50162315    
  0.402999997       8.92448139    
  0.403499991       8.33694077    
  0.404000014       7.74034166    
  0.404500008       7.13521433    
  0.405000001       6.52188015    
  0.405499995       5.90107250    
  0.405999988       5.27357101    
  0.406500012       4.63976049    
  0.407000005       4.00047874    
  0.407499999       3.35643339    
  0.407999992       2.70752192    
  0.408499986       2.05608296    
  0.409000009       1.40171897    
  0.409500003      0.745478213    
  0.409999996       8.77642855E-02
  0.410499990     -0.570623517    
  0.411000013      -1.22931552    
  0.411500007      -1.88689756    
  0.412000000      -2.54294991    
  0.412499994      -3.19720960    
  0.412999988      -3.84885669    
  0.413500011      -4.49727488    
  0.414000005      -5.14189434    
  0.414499998      -5.78177691    
  0.414999992      -6.41702366    
  0.415499985      -7.04632854    
  0.416000009      -7.66945982    
  0.416500002      -8.28583813    
  0.416999996      -8.89456367    
  0.417499989      -9.49533844    
  0.418000013      -10.0870218    
  0.418500006      -10.6695690    
  0.419000000      -11.2417212    
  0.419499993      -11.8029747    
  0.419999987      -12.3528376    
  0.420500010      -12.8907890    
  0.421000004      -13.4160891    
  0.421499997      -13.9274235    
  0.421999991      -14.4250402    
  0.422500014      -14.9081659    
  0.423000008      -15.3762751    
  0.423500001      -15.8283377    
  0.423999995      -16.2643661    
  0.424499989      -16.6837368    
  0.425000012      -17.0863400    
  0.425500005      -17.4712906    
  0.425999999      -17.8386631    
  0.426499993      -18.1880436    
  0.426999986      -18.5190811    
  0.427500010      -18.8315659    
  0.428000003      -19.1253777    