   0.00000000       0.00000000    
   5.00000024E-04   0.00000000    
   1.00000005E-03   0.00000000    
   1.50000001E-03   0.00000000    
   2.00000009E-03   0.00000000    
   2.49999994E-03   0.00000000    
   3.00000003E-03   0.00000000    
   3.50000011E-03   0.00000000    
   4.00000019E-03   0.00000000    
   4.49999981E-03   0.00000000    
   4.99999989E-03   0.00000000    
   5.49999997E-03   0.00000000    
   6.00000005E-03   0.00000000    
   6.50000013E-03   0.00000000    
   7.00000022E-03  -1.86229049E-38
   7.49999983E-03  -9.96887203E-38
   8.00000038E-03  -4.59417652E-37
   8.50000046E-03  -1.87128724E-36
   8.99999961E-03  -6.86761051E-36
   9.49999969E-03  -2.30434158E-35
   9.99999978E-03  -7.15009707E-35
   1.04999999E-02  -2.07037249E-34
   1.09999999E-02  -5.63594670E-34
   1.15000000E-02  -1.45117083E-33
   1.20000001E-02  -3.55239903E-33
   1.25000002E-02  -8.30332475E-33
   1.30000003E-02  -1.85998295E-32
   1.35000004E-02  -4.00558810E-32
   1.40000004E-02  -8.31592781E-32
   1.44999996E-02  -1.66828791E-31
   1.49999997E-02  -3.24071873E-31
   1.54999997E-02  -6.10659676E-31
   1.60000008E-02  -1.11794365E-30
   1.64999999E-02  -1.99106963E-30
   1.70000009E-02  -3.45381004E-30
   1.75000001E-02  -5.84086742E-30
   1.79999992E-02  -9.63761450E-30
   1.85000002E-02  -1.55255638E-29
   1.89999994E-02  -2.44290627E-29
   1.95000004E-02  -3.75545295E-29
   1.99999996E-02  -5.64075390E-29
   2.05000006E-02  -8.27651301E-29
   2.09999997E-02  -1.18570792E-28
   2.15000007E-02  -1.65707313E-28
   2.19999999E-02  -2.25590434E-28
   2.25000009E-02  -2.98512545E-28
   2.30000000E-02  -3.82654980E-28
   2.34999992E-02  -4.72682142E-28
   2.40000002E-02  -5.57832319E-28
   2.44999994E-02  -6.19437811E-28
   2.50000004E-02  -6.27839777E-28
   2.54999995E-02  -5.38725506E-28
   2.60000005E-02  -2.89005312E-28
   2.64999997E-02   2.07527714E-28
   2.70000007E-02   1.06435084E-27
   2.74999999E-02   2.42556432E-27
   2.80000009E-02   4.46760280E-27
   2.85000000E-02   7.39820643E-27
   2.89999992E-02   1.14512852E-26
   2.95000002E-02   1.68760952E-26
   2.99999993E-02   2.39189421E-26
   3.05000003E-02   3.27955948E-26
   3.09999995E-02   4.36526536E-26
   3.15000005E-02   5.65164974E-26
   3.20000015E-02   7.12289752E-26
   3.24999988E-02   8.73699506E-26
   3.29999998E-02   1.04168257E-25
   3.35000008E-02   1.20404247E-25
   3.40000018E-02   1.34309461E-25
   3.44999991E-02   1.43471008E-25
   3.50000001E-02   1.44752044E-25
   3.55000012E-02   1.34241582E-25
   3.59999985E-02   1.07250238E-25
   3.64999995E-02   5.83711957E-26
   3.70000005E-02  -1.83731683E-26
   3.75000015E-02  -1.29277551E-25
   3.79999988E-02  -2.80572753E-25
   3.84999998E-02  -4.77900515E-25
   3.90000008E-02  -7.25631781E-25
   3.95000018E-02  -1.02602730E-24
   3.99999991E-02  -1.37824748E-24
   4.05000001E-02  -1.77723440E-24
   4.10000011E-02  -2.21251010E-24
   4.14999984E-02  -2.66694939E-24
   4.19999994E-02  -3.11561186E-24
   4.25000004E-02  -3.52474097E-24
   4.30000015E-02  -3.85105643E-24
   4.34999987E-02  -4.04148548E-24
   4.39999998E-02  -4.03349906E-24
   4.45000008E-02  -3.75621208E-24
   4.50000018E-02  -3.13241736E-24
   4.54999991E-02  -2.08169467E-24
   4.60000001E-02  -5.24710683E-25
   4.65000011E-02   1.61122582E-24
   4.69999984E-02   4.38535232E-24
   4.74999994E-02   7.83547769E-24
   4.80000004E-02   1.19690158E-23
   4.85000014E-02   1.67533483E-23
   4.89999987E-02   2.21059541E-23
   4.94999997E-02   2.78848130E-23
   5.00000007E-02   3.38798656E-23
   5.05000018E-02   3.98062210E-23
   5.09999990E-02   4.53000882E-23
   5.15000001E-02   4.99183955E-23
   5.20000011E-02   5.31429528E-23
   5.24999984E-02   5.43901987E-23
   5.29999994E-02   5.30272932E-23
   5.35000004E-02   4.83951650E-23
   5.40000014E-02   3.98388673E-23
   5.44999987E-02   2.67452972E-23
   5.49999997E-02   8.58778121E-24
   5.55000007E-02  -1.50233874E-23
   5.60000017E-02  -4.42857677E-23
   5.64999990E-02  -7.91473423E-23
   5.70000000E-02  -1.19249011E-22
   5.75000010E-02  -1.63870581E-22
   5.79999983E-02  -2.11883924E-22
   5.84999993E-02  -2.61716785E-22
   5.90000004E-02  -3.11332728E-22
   5.95000014E-02  -3.58229992E-22
   5.99999987E-02  -3.99464925E-22
   6.04999997E-02  -4.31702553E-22
   6.10000007E-02  -4.51297656E-22
   6.15000017E-02  -4.54408873E-22
   6.19999990E-02  -4.37145062E-22
   6.25000000E-02  -3.95744127E-22
   6.30000010E-02  -3.26781074E-22
   6.35000020E-02  -2.27400478E-22
   6.40000030E-02  -9.55655699E-23
   6.44999966E-02   6.96827596E-23
   6.49999976E-02   2.67970774E-22
   6.54999986E-02   4.97351986E-22
   6.59999996E-02   7.54096449E-22
   6.65000007E-02   1.03252527E-21
   6.70000017E-02   1.32490484E-21
   6.75000027E-02   1.62141738E-21
   6.80000037E-02   1.91022014E-21
   6.84999973E-02   2.17760426E-21
   6.89999983E-02   2.40826910E-21
   6.94999993E-02   2.58570258E-21
   7.00000003E-02   2.69268878E-21
   7.05000013E-02   2.71191527E-21
   7.10000023E-02   2.62669366E-21
   7.15000033E-02   2.42175441E-21
   7.19999969E-02   2.08411084E-21
   7.24999979E-02   1.60395319E-21
   7.29999989E-02   9.75545634E-22
   7.34999999E-02   1.98085270E-22
   7.40000010E-02  -7.23519645E-22
   7.45000020E-02  -1.77798918E-21
   7.50000030E-02  -2.94718535E-21
   7.54999965E-02  -4.20582406E-21
   7.59999976E-02  -5.52143746E-21
   7.64999986E-02  -6.85461309E-21
   7.69999996E-02  -8.15953251E-21
   7.75000006E-02  -9.38482692E-21
   7.80000016E-02  -1.04747497E-20
   7.85000026E-02  -1.13706638E-20
   7.90000036E-02  -1.20128031E-20
   7.94999972E-02  -1.23422916E-20
   7.99999982E-02  -1.23033568E-20
   8.04999992E-02  -1.18456755E-20
   8.10000002E-02  -1.09267788E-20
   8.15000013E-02  -9.51443012E-21
   8.20000023E-02  -7.58890310E-21
   8.25000033E-02  -5.14502423E-21
   8.29999968E-02  -2.19394713E-21
   8.34999979E-02   1.23548654E-21
   8.39999989E-02   5.09584011E-21
   8.44999999E-02   9.32071880E-21
   8.50000009E-02   1.38249814E-20
   8.55000019E-02   1.85056071E-20
   8.60000029E-02   2.32431629E-20
   8.64999965E-02   2.79039040E-20
   8.69999975E-02   3.23425261E-20
   8.74999985E-02   3.64053658E-20
   8.79999995E-02   3.99341700E-20
   8.85000005E-02   4.27701523E-20
   8.90000015E-02   4.47583811E-20
   8.95000026E-02   4.57522741E-20
   9.00000036E-02   4.56181125E-20
   9.04999971E-02   4.42394577E-20
   9.09999982E-02   4.15213357E-20
   9.14999992E-02   3.73940276E-20
   9.20000002E-02   3.18164715E-20
   9.25000012E-02   2.47790515E-20
   9.30000022E-02   1.63058447E-20
   9.35000032E-02   6.45619355E-21
   9.39999968E-02  -4.67436654E-21
   9.44999978E-02  -1.69538631E-20
   9.49999988E-02  -3.02142130E-20
   9.54999998E-02  -4.42522176E-20
   9.60000008E-02  -5.88309916E-20
   9.65000018E-02  -7.36819919E-20
   9.70000029E-02  -8.85073627E-20
   9.74999964E-02  -1.02982681E-19
   9.79999974E-02  -1.16760162E-19
   9.84999985E-02  -1.29471951E-19
   9.89999995E-02  -1.40734105E-19
   9.95000005E-02  -1.50150639E-19
  0.100000001      -1.57318379E-19
  0.100500003      -1.61832084E-19
  0.101000004      -1.63290545E-19
  0.101499997      -1.61303360E-19
  0.101999998      -1.55498930E-19
  0.102499999      -1.45533239E-19
  0.103000000      -1.31100333E-19
  0.103500001      -1.11943774E-19
  0.104000002      -8.78696258E-20
  0.104500003      -5.87605778E-20
  0.104999997      -2.45912815E-20
  0.105499998       1.45555838E-20
  0.105999999       5.84728417E-20
  0.106500000       1.06812437E-19
  0.107000001       1.59069804E-19
  0.107500002       2.14569992E-19
  0.108000003       2.72455975E-19
  0.108499996       3.31680762E-19
  0.108999997       3.91003623E-19
  0.109499998       4.48992137E-19
  0.109999999       5.04030616E-19
  0.110500000       5.54336328E-19
  0.111000001       5.97983340E-19
  0.111500002       6.32935961E-19
  0.112000003       6.57091496E-19
  0.112499997       6.68331381E-19
  0.112999998       6.64582288E-19
  0.113499999       6.43884523E-19
  0.114000000       6.04468747E-19
  0.114500001       5.44836521E-19
  0.115000002       4.63845406E-19
  0.115500003       3.60794651E-19
  0.115999997       2.35508453E-19
  0.116499998       8.84143178E-20
  0.116999999      -7.93872311E-20
  0.117500000      -2.66065772E-19
  0.118000001      -4.69019421E-19
  0.118500002      -6.84853280E-19
  0.119000003      -9.09380342E-19
  0.119499996      -1.13764797E-18
  0.119999997      -1.36399250E-18
  0.120499998      -1.58212261E-18
  0.120999999      -1.78523361E-18
  0.121500000      -1.96615103E-18
  0.122000001      -2.11750130E-18
  0.122500002      -2.23191155E-18
  0.123000003      -2.30222790E-18
  0.123499997      -2.32175226E-18
  0.123999998      -2.28449294E-18
  0.124499999      -2.18541407E-18
  0.125000000      -2.02068809E-18
  0.125499994      -1.78792939E-18
  0.126000002      -1.48641378E-18
  0.126499996      -1.11726220E-18
  0.127000004      -6.83589503E-19
  0.127499998      -1.90604644E-19
  0.128000006       3.54345046E-19
  0.128500000       9.41788348E-19
  0.128999993       1.56021277E-18
  0.129500002       2.19621602E-18
  0.129999995       2.83472625E-18
  0.130500004       3.45929621E-18
  0.130999997       4.05245626E-18
  0.131500006       4.59613353E-18
  0.131999999       5.07212138E-18
  0.132499993       5.46258661E-18
  0.133000001       5.75060925E-18
  0.133499995       5.92073714E-18
  0.134000003       5.95952778E-18
  0.134499997       5.85608594E-18
  0.135000005       5.60255178E-18
  0.135499999       5.19454080E-18
  0.136000007       4.63150667E-18
  0.136500001       3.91702115E-18
  0.136999995       3.05894865E-18
  0.137500003       2.06950125E-18
  0.137999997       9.65183393E-19
  0.138500005      -2.33405424E-19
  0.138999999      -1.50188888E-18
  0.139500007      -2.81256959E-18
  0.140000001      -4.13499813E-18
  0.140499994      -5.43666360E-18
  0.141000003      -6.68377031E-18
  0.141499996      -7.84210813E-18
  0.142000005      -8.87796077E-18
  0.142499998      -9.75907108E-18
  0.143000007      -1.04555886E-17
  0.143500000      -1.09410162E-17
  0.143999994      -1.11930921E-17
  0.144500002      -1.11945959E-17
  0.144999996      -1.09340530E-17
  0.145500004      -1.04063027E-17
  0.145999998      -9.61290992E-18
  0.146500006      -8.56241618E-18
  0.147000000      -7.27038736E-18
  0.147499993      -5.75928637E-18
  0.148000002      -4.05812658E-18
  0.148499995      -2.20194838E-18
  0.149000004      -2.31104208E-19
  0.149499997       1.80965280E-18
  0.150000006       3.87217183E-18
  0.150500000       5.90612210E-18
  0.150999993       7.86021181E-18
  0.151500002       9.68356768E-18
  0.151999995       1.13270515E-17
  0.152500004       1.27446447E-17
  0.152999997       1.38947268E-17
  0.153500006       1.47413164E-17
  0.153999999       1.52551527E-17
  0.154499993       1.54146563E-17
  0.155000001       1.52066865E-17
  0.155499995       1.46271109E-17
  0.156000003       1.36811223E-17
  0.156499997       1.23833628E-17
  0.157000005       1.07577535E-17
  0.157499999       8.83713279E-18
  0.158000007       6.66262633E-18
  0.158500001       4.28282482E-18
  0.158999994       1.75272231E-18
  0.159500003      -8.67474545E-19
  0.159999996      -3.51371931E-18
  0.160500005      -6.11957771E-18
  0.160999998      -8.61780254E-18
  0.161500007      -1.09418814E-17
  0.162000000      -1.30276480E-17
  0.162499994      -1.48148561E-17
  0.163000003      -1.62486165E-17
  0.163499996      -1.72808171E-17
  0.164000005      -1.78713645E-17
  0.164499998      -1.79893089E-17
  0.165000007      -1.76137110E-17
  0.165500000      -1.67344362E-17
  0.165999994      -1.53526591E-17
  0.166500002      -1.34811870E-17
  0.166999996      -1.11445498E-17
  0.167500004      -8.37895248E-18
  0.167999998      -5.23187436E-18
  0.168500006      -1.76163332E-18
  0.169000000       1.96335992E-18
  0.169499993       5.86551663E-18
  0.170000002       9.85910534E-18
  0.170499995       1.38515596E-17
  0.171000004       1.77448241E-17
  0.171499997       2.14369365E-17
  0.172000006       2.48237630E-17
  0.172499999       2.78007198E-17
  0.172999993       3.02648710E-17
  0.173500001       3.21169119E-17
  0.173999995       3.32633842E-17
  0.174500003       3.36188700E-17
  0.174999997       3.31084136E-17
  0.175500005       3.16697976E-17
  0.175999999       2.92559290E-17
  0.176499993       2.58372147E-17
  0.177000001       2.14037698E-17
  0.177499995       1.59675571E-17
  0.178000003       9.56439826E-18
  0.178499997       2.25550481E-18
  0.179000005      -5.87111995E-18
  0.179499999      -1.46997522E-17
  0.180000007      -2.40865316E-17
  0.180500001      -3.38598244E-17
  0.180999994      -4.38207466E-17
  0.181500003      -5.37452397E-17
  0.181999996      -6.33859305E-17
  0.182500005      -7.24759175E-17
  0.182999998      -8.07325432E-17
  0.183500007      -8.78628467E-17
  0.184000000      -9.35692548E-17
  0.184499994      -9.75564638E-17
  0.185000002      -9.95391959E-17
  0.185499996      -9.92504768E-17
  0.186000004      -9.64502123E-17
  0.186499998      -9.09347970E-17
  0.187000006      -8.25459217E-17
  0.187500000      -7.11802880E-17
  0.187999994      -5.67982112E-17
  0.188500002      -3.94318950E-17
  0.188999996      -1.91926681E-17
  0.189500004       3.72289013E-18
  0.189999998       2.90285867E-17
  0.190500006       5.63462860E-17
  0.191000000       8.52052478E-17
  0.191499993       1.15044266E-16
  0.192000002       1.45216308E-16
  0.192499995       1.74995961E-16
  0.193000004       2.03589663E-16
  0.193499997       2.30148963E-16
  0.194000006       2.53786344E-16
  0.194499999       2.73593945E-16
  0.194999993       2.88664567E-16
  0.195500001       2.98115152E-16
  0.195999995       3.01111239E-16
  0.196500003       2.96892910E-16
  0.196999997       2.84802679E-16
  0.197500005       2.64310384E-16
  0.197999999       2.35040049E-16
  0.198500007       1.96794540E-16
  0.199000001       1.49577429E-16
  0.199499995       9.36116461E-17
  0.200000003       2.93554091E-17
  0.200499997      -4.24876789E-17
  0.201000005      -1.20961586E-16
  0.201499999      -2.04859193E-16
  0.202000007      -2.92729451E-16
  0.202500001      -3.82888459E-16
  0.202999994      -4.73440225E-16
  0.203500003      -5.62303246E-16
  0.203999996      -6.47243974E-16
  0.204500005      -7.25913218E-16
  0.204999998      -7.95898945E-16
  0.205500007      -8.54769587E-16
  0.206000000      -9.00133337E-16
  0.206499994      -9.29693834E-16
  0.207000002      -9.41313114E-16
  0.207499996      -9.33072013E-16
  0.208000004      -9.03327392E-16
  0.208499998      -8.50778633E-16
  0.209000006      -7.74515174E-16
  0.209500000      -6.74069190E-16
  0.209999993      -5.49459261E-16
  0.210500002      -4.01225319E-16
  0.210999995      -2.30453101E-16
  0.211500004      -3.87911212E-17
  0.211999997       1.71547015E-16
  0.212500006       3.97790707E-16
  0.213000000       6.36634939E-16
  0.213499993       8.84271851E-16
  0.214000002       1.13644145E-15
  0.214499995       1.38848934E-15
  0.215000004       1.63544190E-15
  0.215499997       1.87208384E-15
  0.216000006       2.09305907E-15
  0.216499999       2.29295694E-15
  0.216999993       2.46643818E-15
  0.217500001       2.60833145E-15
  0.217999995       2.71374703E-15
  0.218500003       2.77819776E-15
  0.218999997       2.79771107E-15
  0.219500005       2.76891174E-15
  0.219999999       2.68914453E-15
  0.220500007       2.55654851E-15
  0.221000001       2.37013308E-15
  0.221499994       2.12982962E-15
  0.222000003       1.83655314E-15
  0.222499996       1.49221974E-15
  0.223000005       1.09974480E-15
  0.223499998       6.63047386E-16
  0.224000007       1.87001528E-16
  0.224500000      -3.22595304E-16
  0.224999994      -8.59119472E-16
  0.225500003      -1.41519247E-15
  0.225999996      -1.98279613E-15
  0.226500005      -2.55338654E-15
  0.226999998      -3.11803691E-15
  0.227500007      -3.66759845E-15
  0.228000000      -4.19282452E-15
  0.228499994      -4.68455849E-15
  0.229000002      -5.13388999E-15
  0.229499996      -5.53230718E-15
  0.230000004      -5.87186914E-15
  0.230499998      -6.14535109E-15
  0.231000006      -6.34637699E-15
  0.231500000      -6.46956946E-15
  0.231999993      -6.51062981E-15
  0.232500002      -6.46644730E-15
  0.232999995      -6.33519065E-15
  0.233500004      -6.11631649E-15
  0.233999997      -5.81061891E-15
  0.234500006      -5.42024218E-15
  0.234999999      -4.94861932E-15
  0.235499993      -4.40048439E-15
  0.236000001      -3.78175732E-15
  0.236499995      -3.09942294E-15
  0.237000003      -2.36150647E-15
  0.237499997      -1.57687200E-15
  0.238000005      -7.55067139E-16
  0.238499999       9.37827600E-17
  0.238999993       9.59241625E-16
  0.239500001       1.83058029E-15
  0.239999995       2.69722035E-15
  0.240500003       3.54860155E-15
  0.240999997       4.37468758E-15
  0.241500005       5.16585023E-15
  0.241999999       5.91324331E-15
  0.242500007       6.60886488E-15
  0.243000001       7.24568839E-15
  0.243499994       7.81775581E-15
  0.244000003       8.32034874E-15
  0.244499996       8.74998756E-15
  0.245000005       9.10449542E-15
  0.245499998       9.38300578E-15
  0.246000007       9.58593200E-15
  0.246500000       9.71498425E-15
  0.246999994       9.77302718E-15
  0.247500002       9.76400798E-15
  0.247999996       9.69285805E-15
  0.248500004       9.56533301E-15
  0.248999998       9.38783302E-15
  0.249500006       9.16722752E-15
  0.250000000       8.91069428E-15
  0.250499994       8.62546525E-15
  0.250999987       8.31862587E-15
  0.251500010       7.99692784E-15
  0.252000004       7.66652570E-15
  0.252499998       7.33278286E-15
  0.252999991       7.00014286E-15
  0.253500015       6.67181891E-15
  0.254000008       6.34987185E-15
  0.254500002       6.03478195E-15
  0.254999995       5.72548236E-15
  0.255499989       5.41952263E-15
  0.256000012       5.11256805E-15
  0.256500006       4.79868602E-15
  0.256999999       4.47052173E-15
  0.257499993       4.11905219E-15
  0.257999986       3.73404395E-15
  0.258500010       3.30402396E-15
  0.259000003       2.81637841E-15
  0.259499997       2.25828238E-15
  0.259999990       1.61602293E-15
  0.260500014       8.75921535E-16
  0.261000007       2.46558337E-17
  0.261500001      -9.50422001E-16
  0.261999995      -2.06107151E-15
  0.262499988      -3.31748861E-15
  0.263000011      -4.72809344E-15
  0.263500005      -6.29896178E-15
  0.263999999      -8.03360945E-15
  0.264499992      -9.93246419E-15
  0.264999986      -1.19927541E-14
  0.265500009      -1.42080307E-14
  0.266000003      -1.65680271E-14
  0.266499996      -1.90584531E-14
  0.266999990      -2.16608432E-14
  0.267500013      -2.43526512E-14
  0.268000007      -2.71070990E-14
  0.268500000      -2.98934732E-14
  0.268999994      -3.26771860E-14
  0.269499987      -3.54202175E-14
  0.270000011      -3.80813240E-14
  0.270500004      -4.06166867E-14
  0.270999998      -4.29800543E-14
  0.271499991      -4.51240845E-14
  0.272000015      -4.70003437E-14
  0.272500008      -4.85601278E-14
  0.273000002      -4.97557589E-14
  0.273499995      -5.05411177E-14
  0.273999989      -5.08719484E-14
  0.274500012      -5.07080272E-14
  0.275000006      -5.00124031E-14
  0.275500000      -4.87533225E-14
  0.275999993      -4.69044901E-14
  0.276499987      -4.44464378E-14
  0.277000010      -4.13663786E-14
  0.277500004      -3.76587664E-14
  0.277999997      -3.33268705E-14
  0.278499991      -2.83819192E-14
  0.279000014      -2.28435231E-14
  0.279500008      -1.67401036E-14
  0.280000001      -1.01087495E-14
  0.280499995      -2.99451156E-15
  0.280999988       4.54932121E-15
  0.281500012       1.24616410E-14
  0.282000005       2.06755152E-14
  0.282499999       2.91177571E-14
  0.282999992       3.77097815E-14
  0.283499986       4.63693110E-14
  0.284000009       5.50106496E-14
  0.284500003       6.35475288E-14
  0.284999996       7.18925042E-14
  0.285499990       7.99592258E-14
  0.286000013       8.76635665E-14
  0.286500007       9.49252477E-14
  0.287000000       1.01668084E-13
  0.287499994       1.07822442E-13
  0.287999988       1.13325710E-13
  0.288500011       1.18122932E-13
  0.289000005       1.22168402E-13
  0.289499998       1.25425711E-13
  0.289999992       1.27868771E-13
  0.290499985       1.29481346E-13
  0.291000009       1.30258407E-13
  0.291500002       1.30204685E-13
  0.291999996       1.29335846E-13
  0.292499989       1.27676569E-13
  0.293000013       1.25261021E-13
  0.293500006       1.22130374E-13
  0.294000000       1.18335205E-13
  0.294499993       1.13929563E-13
  0.294999987       1.08973384E-13
  0.295500010       1.03529774E-13
  0.296000004       9.76635358E-14
  0.296499997       9.14391785E-14
  0.296999991       8.49209415E-14
  0.297500014       7.81699331E-14
  0.298000008       7.12412849E-14
  0.298500001       6.41881567E-14
  0.298999995       5.70526021E-14
  0.299499989       4.98704370E-14
  0.300000012       4.26695117E-14
  0.300500005       3.54674548E-14
  0.300999999       2.82705073E-14
  0.301499993       2.10764040E-14
  0.301999986       1.38726362E-14
  0.302500010       6.63646926E-15
  0.303000003      -6.66773325E-16
  0.303499997      -8.07688182E-15
  0.303999990      -1.56404668E-14
  0.304500014      -2.34138050E-14
  0.305000007      -3.14588545E-14
  0.305500001      -3.98347296E-14
  0.305999994      -4.86068095E-14
  0.306499988      -5.78387503E-14
  0.307000011      -6.75896649E-14
  0.307500005      -7.79158435E-14
  0.307999998      -8.88636021E-14
  0.308499992      -1.00473300E-13
  0.308999985      -1.12771093E-13
  0.309500009      -1.25772887E-13
  0.310000002      -1.39477270E-13
  0.310499996      -1.53868319E-13
  0.310999990      -1.68910933E-13
  0.311500013      -1.84554317E-13
  0.312000006      -2.00726168E-13
  0.312500000      -2.17335684E-13
  0.312999994      -2.34273050E-13
  0.313499987      -2.51409624E-13
  0.314000010      -2.68598240E-13
  0.314500004      -2.85675400E-13
  0.314999998      -3.02462699E-13
  0.315499991      -3.18767934E-13
  0.316000015      -3.34387682E-13
  0.316500008      -3.49110118E-13
  0.317000002      -3.62718427E-13
  0.317499995      -3.74993195E-13
  0.317999989      -3.85715006E-13
  0.318500012      -3.94666152E-13
  0.319000006      -4.01640825E-13
  0.319499999      -4.06445223E-13
  0.319999993      -4.08892917E-13
  0.320499986      -4.08822444E-13
  0.321000010      -4.06089414E-13
  0.321500003      -4.00576734E-13
  0.321999997      -3.92193466E-13
  0.322499990      -3.80875941E-13
  0.323000014      -3.66591170E-13
  0.323500007      -3.49346013E-13
  0.324000001      -3.29177983E-13
  0.324499995      -3.06160940E-13
  0.324999988      -2.80404037E-13
  0.325500011      -2.52052800E-13
  0.326000005      -2.21285745E-13
  0.326499999      -1.88322258E-13
  0.326999992      -1.53406747E-13
  0.327499986      -1.16812091E-13
  0.328000009      -7.88486437E-14
  0.328500003      -3.98483736E-14
  0.328999996      -1.55750976E-16
  0.329499990       3.98586092E-14
  0.330000013       7.98115710E-14
  0.330500007       1.19312072E-13
  0.331000000       1.57964448E-13
  0.331499994       1.95371985E-13
  0.331999987       2.31143528E-13
  0.332500011       2.64893766E-13
  0.333000004       2.96249706E-13
  0.333499998       3.24855594E-13
  0.333999991       3.50380586E-13
  0.334500015       3.72507445E-13
  0.335000008       3.90949697E-13
  0.335500002       4.05451605E-13
  0.335999995       4.15791425E-13
  0.336499989       4.21771369E-13
  0.337000012       4.23224281E-13
  0.337500006       4.20026264E-13
  0.338000000       4.12070443E-13
  0.338499993       3.99296617E-13
  0.338999987       3.81659222E-13
  0.339500010       3.59145819E-13
  0.340000004       3.31761501E-13
  0.340499997       2.99535272E-13
  0.340999991       2.62504048E-13
  0.341500014       2.20717311E-13
  0.342000008       1.74227928E-13
  0.342500001       1.23085895E-13
  0.342999995       6.73367137E-14
  0.343499988       7.00936196E-15
  0.344000012      -5.78870651E-14
  0.344500005      -1.27365065E-13
  0.344999999      -2.01470703E-13
  0.345499992      -2.80281251E-13
  0.345999986      -3.63920672E-13
  0.346500009      -4.52558889E-13
  0.347000003      -5.46414205E-13
  0.347499996      -6.45758295E-13
  0.347999990      -7.50917449E-13
  0.348500013      -8.62283986E-13
  0.349000007      -9.80300043E-13
  0.349500000      -1.10547606E-12
  0.349999994      -1.23837605E-12
  0.350499988      -1.37961940E-12
  0.351000011      -1.52988950E-12
  0.351500005      -1.68992533E-12
  0.351999998      -1.86051023E-12
  0.352499992      -2.04247968E-12
  0.352999985      -2.23670886E-12
  0.353500009      -2.44411479E-12
  0.354000002      -2.66563356E-12
  0.354499996      -2.90224333E-12
  0.354999989      -3.15494180E-12
  0.355500013      -3.42471602E-12
  0.356000006      -3.71260271E-12
  0.356500000      -4.01959369E-12
  0.356999993      -4.34672090E-12
  0.357499987      -4.69496620E-12
  0.358000010      -5.06535829E-12
  0.358500004      -5.45882393E-12
  0.358999997      -5.87634542E-12
  0.359499991      -6.31885126E-12
  0.360000014      -6.78724958E-12
  0.360500008      -7.28241512E-12
  0.361000001      -7.80522869E-12
  0.361499995      -8.35645528E-12
  0.361999989      -8.93696835E-12
  0.362500012      -9.54754852E-12
  0.363000005      -1.01889608E-11
  0.363499999      -1.08620040E-11
  0.363999993      -1.15673538E-11
  0.364499986      -1.23059002E-11
  0.365000010      -1.30782433E-11
  0.365500003      -1.38852567E-11
  0.365999997      -1.47277381E-11
  0.366499990      -1.56063478E-11
  0.367000014      -1.65219539E-11
  0.367500007      -1.74755765E-11
  0.368000001      -1.84680552E-11
  0.368499994      -1.95003319E-11
  0.368999988      -2.05734978E-11
  0.369500011      -2.16886110E-11
  0.370000005      -2.28467262E-11
  0.370499998      -2.40491516E-11
  0.370999992      -2.52974135E-11
  0.371499985      -2.65923880E-11
  0.372000009      -2.79359678E-11
  0.372500002      -2.93293133E-11
  0.372999996      -3.07741714E-11
  0.373499990      -3.22722925E-11
  0.374000013      -3.38254182E-11
  0.374500006      -3.54359493E-11
  0.375000000      -3.71049094E-11
  0.375499994      -3.88346959E-11
  0.375999987      -4.06280738E-11
  0.376500010      -4.24866461E-11
  0.377000004      -4.44125917E-11
  0.377499998      -4.64088247E-11
  0.377999991      -4.84775241E-11
  0.378500015      -5.06216041E-11
  0.379000008      -5.28438265E-11
  0.379500002      -5.51468107E-11
  0.379999995      -5.75331796E-11
  0.380499989      -6.00062847E-11
  0.381000012      -6.25697411E-11
  0.381500006      -6.52263382E-11
  0.381999999      -6.79792750E-11
  0.382499993      -7.08323261E-11
  0.382999986      -7.37886904E-11
  0.383500010      -7.68515737E-11
  0.384000003      -8.00262218E-11
  0.384499997      -8.33152436E-11
  0.384999990      -8.67230177E-11
  0.385500014      -9.02538877E-11
  0.386000007      -9.39119546E-11
  0.386500001      -9.77006878E-11
  0.386999995      -1.01624757E-10
  0.387499988      -1.05687945E-10
  0.388000011      -1.09894906E-10
  0.388500005      -1.14248833E-10
  0.388999999      -1.18755852E-10
  0.389499992      -1.23418289E-10
  0.389999986      -1.28239627E-10
  0.390500009      -1.33224543E-10
  0.391000003      -1.38378253E-10
  0.391499996      -1.43701329E-10
  0.391999990      -1.49198459E-10
  0.392500013      -1.54872545E-10
  0.393000007      -1.60727071E-10
  0.393500000      -1.66760883E-10
  0.393999994      -1.72981532E-10
  0.394499987      -1.79386700E-10
  0.395000011      -1.85979884E-10
  0.395500004      -1.92760488E-10
  0.395999998      -1.99727374E-10
  0.396499991      -2.06886341E-10
  0.397000015      -2.14230980E-10
  0.397500008      -2.21761873E-10
  0.398000002      -2.29479047E-10
  0.398499995      -2.37380171E-10
  0.398999989      -2.45458209E-10
  0.399500012      -2.53710886E-10
  0.400000006      -2.62133565E-10
  0.400500000      -2.70723832E-10
  0.400999993      -2.79471279E-10
  0.401499987      -2.88370050E-10
  0.402000010      -2.97410901E-10
  0.402500004      -3.06586756E-10
  0.402999997      -3.15886012E-10
  0.403499991      -3.25294680E-10
  0.404000014      -3.34797662E-10
  0.404500008      -3.44382134E-10
  0.405000001      -3.54024837E-10
  0.405499995      -3.63711755E-10
  0.405999988      -3.73418435E-10
  0.406500012      -3.83120508E-10
  0.407000005      -3.92789967E-10
  0.407499999      -4.02396533E-10
  0.407999992      -4.11912338E-10
  0.408499986      -4.21293084E-10
  0.409000009      -4.30503883E-10
  0.409500003      -4.39500464E-10
  0.409999996      -4.48233922E-10
  0.410499990      -4.56648414E-10
  0.411000013      -4.64699723E-10
  0.411500007      -4.72308581E-10
  0.412000000      -4.79426221E-10
  0.412499994      -4.85968765E-10
  0.412999988      -4.91864105E-10
  0.413500011      -4.97018926E-10
  0.414000005      -5.01351904E-10
  0.414499998      -5.04762898E-10
  0.414999992      -5.07135389E-10
  0.415499985      -5.08367071E-10
  0.416000009      -5.08336873E-10
  0.416500002      -5.06911901E-10
  0.416999996      -5.03961928E-10
  0.417499989      -4.99321640E-10
  0.418000013      -4.92837271E-10
  0.418500006      -4.84343621E-10
  0.419000000      -4.73652062E-10
  0.419499993      -4.60576272E-10
  0.419999987      -4.44897452E-10
  0.420500010      -4.26415347E-10
  0.421000004      -4.04873857E-10
  0.421499997      -3.80035503E-10
  0.421999991      -3.51625506E-10
  0.422500014      -3.19355181E-10
  0.423000008      -2.82940449E-10
  0.423500001      -2.42027454E-10
  0.423999995      -1.96285543E-10
  0.424499989      -1.45342210E-10
  0.425000012      -8.88109239E-11
  0.425500005      -2.62679548E-11
  0.425999999       4.27174407E-11
  0.426499993       1.18620239E-10
  0.426999986       2.01950318E-10
  0.427500010       2.93233909E-10
  0.428000003       3.93025112E-10