   0.00000000      -4.20681545E-06
   5.00000024E-04  -3.86977626E-06
   1.00000005E-03  -2.95390805E-06
   1.50000001E-03  -1.58578734E-06
   2.00000009E-03   4.44680417E-08
   2.49999994E-03   1.70469127E-06
   3.00000003E-03   3.14899535E-06
   3.50000011E-03   4.14845545E-06
   4.00000019E-03   4.52069889E-06
   4.49999981E-03   4.15492696E-06
   4.99999989E-03   3.02935427E-06
   5.49999997E-03   1.21871437E-06
   6.00000005E-03  -1.10948235E-06
   6.50000013E-03  -3.71016790E-06
   7.00000022E-03  -6.28630596E-06
   7.49999983E-03  -8.52270932E-06
   8.00000038E-03  -1.01247851E-05
   8.50000046E-03  -1.08583454E-05
   8.99999961E-03  -1.05860645E-05
   9.49999969E-03  -9.29637918E-06
   9.99999978E-03  -7.12096244E-06
   1.04999999E-02  -4.33780315E-06
   1.09999999E-02  -1.35825087E-06
   1.15000000E-02   1.30243507E-06
   1.20000001E-02   3.06940592E-06
   1.25000002E-02   3.36497465E-06
   1.30000003E-02   1.67287976E-06
   1.35000004E-02  -2.39493738E-06
   1.40000004E-02  -9.03542332E-06
   1.44999996E-02  -1.82018593E-05
   1.49999997E-02  -2.95676655E-05
   1.54999997E-02  -4.25115868E-05
   1.60000008E-02  -5.61283960E-05
   1.64999999E-02  -6.92666217E-05
   1.70000009E-02  -8.05930613E-05
   1.75000001E-02  -8.86818598E-05
   1.79999992E-02  -9.21224855E-05
   1.85000002E-02  -8.96409838E-05
   1.89999994E-02  -8.02238646E-05
   1.95000004E-02  -6.32375013E-05
   1.99999996E-02  -3.85305357E-05
   2.05000006E-02  -6.51178925E-06
   2.09999997E-02   3.18070161E-05
   2.15000007E-02   7.48081075E-05
   2.19999999E-02   1.20309647E-04
   2.25000009E-02   1.65653444E-04
   2.30000000E-02   2.07835634E-04
   2.34999992E-02   2.43675371E-04
   2.40000002E-02   2.70011777E-04
   2.44999994E-02   2.83918256E-04
   2.50000004E-02   2.82919849E-04
   2.54999995E-02   2.65199342E-04
   2.60000005E-02   2.29776662E-04
   2.64999997E-02   1.76646878E-04
   2.70000007E-02   1.06865904E-04
   2.74999999E-02   2.25723488E-05
   2.80000009E-02  -7.30583270E-05
   2.85000000E-02  -1.75929395E-04
   2.89999992E-02  -2.81205837E-04
   2.95000002E-02  -3.83555947E-04
   2.99999993E-02  -4.77439287E-04
   3.05000003E-02  -5.57426480E-04
   3.09999995E-02  -6.18529506E-04
   3.15000005E-02  -6.56525546E-04
   3.20000015E-02  -6.68250839E-04
   3.24999988E-02  -6.51845126E-04
   3.29999998E-02  -6.06930640E-04
   3.35000008E-02  -5.34709368E-04
   3.40000018E-02  -4.37970797E-04
   3.44999991E-02  -3.21004656E-04
   3.50000001E-02  -1.89421262E-04
   3.55000012E-02  -4.98877125E-05
   3.59999985E-02   9.02100946E-05
   3.64999995E-02   2.23157622E-04
   3.70000005E-02   3.41335748E-04
   3.75000015E-02   4.37649054E-04
   3.79999988E-02   5.05941629E-04
   3.84999998E-02   5.41363028E-04
   3.90000008E-02   5.40672743E-04
   3.95000018E-02   5.02458191E-04
   3.99999991E-02   4.27250139E-04
   4.05000001E-02   3.17529368E-04
   4.10000011E-02   1.77622307E-04
   4.14999984E-02   1.34897691E-05
   4.19999994E-02  -1.67581005E-04
   4.25000004E-02  -3.57365701E-04
   4.30000015E-02  -5.47147007E-04
   4.34999987E-02  -7.28192099E-04
   4.39999998E-02  -8.92233336E-04
   4.45000008E-02  -1.03192613E-03
   4.50000018E-02  -1.14125502E-03
   4.54999991E-02  -1.21586840E-03
   4.60000001E-02  -1.25331373E-03
   4.65000011E-02  -1.25316938E-03
   4.69999984E-02  -1.21705676E-03
   4.74999994E-02  -1.14855007E-03
   4.80000004E-02  -1.05295330E-03
   4.85000014E-02  -9.37008124E-04
   4.89999987E-02  -8.08502897E-04
   4.94999997E-02  -6.75840653E-04
   5.00000007E-02  -5.47576055E-04
   5.05000018E-02  -4.31947788E-04
   5.09999990E-02  -3.36443103E-04
   5.15000001E-02  -2.67414056E-04
   5.20000011E-02  -2.29762969E-04
   5.24999984E-02  -2.26725242E-04
   5.29999994E-02  -2.59752705E-04
   5.35000004E-02  -3.28493130E-04
   5.40000014E-02  -4.30895569E-04
   5.44999987E-02  -5.63398062E-04
   5.49999997E-02  -7.21192628E-04
   5.55000007E-02  -8.98572674E-04
   5.60000017E-02  -1.08931505E-03
   5.64999990E-02  -1.28706091E-03
   5.70000000E-02  -1.48573436E-03
   5.75000010E-02  -1.67987845E-03
   5.79999983E-02  -1.86498393E-03
   5.84999993E-02  -2.03773100E-03
   5.90000004E-02  -2.19612103E-03
   5.95000014E-02  -2.33960059E-03
   5.99999987E-02  -2.46898853E-03
   6.04999997E-02  -2.58642226E-03
   6.10000007E-02  -2.69515137E-03
   6.15000017E-02  -2.79929349E-03
   6.19999990E-02  -2.90357415E-03
   6.25000000E-02  -3.01299500E-03
   6.30000010E-02  -3.13252537E-03
   6.35000020E-02  -3.26679600E-03
   6.40000030E-02  -3.41985538E-03
   6.44999966E-02  -3.59492889E-03
   6.49999976E-02  -3.79428943E-03
   6.54999986E-02  -4.01914166E-03
   6.59999996E-02  -4.26964881E-03
   6.65000007E-02  -4.54495708E-03
   6.70000017E-02  -4.84335097E-03
   6.75000027E-02  -5.16241882E-03
   6.80000037E-02  -5.49929962E-03
   6.84999973E-02  -5.85084362E-03
   6.89999983E-02  -6.21401053E-03
   6.94999993E-02  -6.58599008E-03
   7.00000003E-02  -6.96448097E-03
   7.05000013E-02  -7.34794140E-03
   7.10000023E-02  -7.73559837E-03
   7.15000033E-02  -8.12769029E-03
   7.19999969E-02  -8.52542184E-03
   7.24999979E-02  -8.93095136E-03
   7.29999989E-02  -9.34727862E-03
   7.34999999E-02  -9.77825280E-03
   7.40000010E-02  -1.02282567E-02
   7.45000020E-02  -1.07021481E-02
   7.50000030E-02  -1.12049421E-02
   7.54999965E-02  -1.17416736E-02
   7.59999976E-02  -1.23172654E-02
   7.64999986E-02  -1.29362307E-02
   7.69999996E-02  -1.36026768E-02
   7.75000006E-02  -1.43201146E-02
   7.80000016E-02  -1.50912208E-02
   7.85000026E-02  -1.59183107E-02
   7.90000036E-02  -1.68028418E-02
   7.94999972E-02  -1.77457761E-02
   7.99999982E-02  -1.87476054E-02
   8.04999992E-02  -1.98084116E-02
   8.10000002E-02  -2.09280420E-02
   8.15000013E-02  -2.21062303E-02
   8.20000023E-02  -2.33427659E-02
   8.25000033E-02  -2.46376563E-02
   8.29999968E-02  -2.59910617E-02
   8.34999979E-02  -2.74037272E-02
   8.39999989E-02  -2.88766064E-02
   8.44999999E-02  -3.04114744E-02
   8.50000009E-02  -3.20104659E-02
   8.55000019E-02  -3.36762071E-02
   8.60000029E-02  -3.54120135E-02
   8.64999965E-02  -3.72217856E-02
   8.69999975E-02  -3.91096547E-02
   8.74999985E-02  -4.10803221E-02
   8.79999995E-02  -4.31387313E-02
   8.85000005E-02  -4.52902578E-02
   8.90000015E-02  -4.75404598E-02
   8.95000026E-02  -4.98950966E-02
   9.00000036E-02  -5.23602478E-02
   9.04999971E-02  -5.49420193E-02
   9.09999982E-02  -5.76466173E-02
   9.14999992E-02  -6.04805201E-02
   9.20000002E-02  -6.34503067E-02
   9.25000012E-02  -6.65622503E-02
   9.30000022E-02  -6.98231086E-02
   9.35000032E-02  -7.32397065E-02
   9.39999968E-02  -7.68191144E-02
   9.44999978E-02  -8.05683732E-02
   9.49999988E-02  -8.44945312E-02
   9.54999998E-02  -8.86054188E-02
   9.60000008E-02  -9.29084197E-02
   9.65000018E-02  -9.74117145E-02
   9.70000029E-02 -0.102123484    
   9.74999964E-02 -0.107051969    
   9.79999974E-02 -0.112205826    
   9.84999985E-02 -0.117593825    
   9.89999995E-02 -0.123226099    
   9.95000005E-02 -0.129111424    
  0.100000001     -0.135260254    
  0.100500003     -0.141683087    
  0.101000004     -0.148390219    
  0.101499997     -0.155393332    
  0.101999998     -0.162703916    
  0.102499999     -0.170334220    
  0.103000000     -0.178296566    
  0.103500001     -0.186604738    
  0.104000002     -0.195271254    
  0.104500003     -0.204310685    
  0.104999997     -0.213737532    
  0.105499998     -0.223566979    
  0.105999999     -0.233813599    
  0.106500000     -0.244493097    
  0.107000001     -0.255623043    
  0.107500002     -0.267219990    
  0.108000003     -0.279300630    
  0.108499996     -0.291883767    
  0.108999997     -0.304987967    
  0.109499998     -0.318632871    
  0.109999999     -0.332837909    
  0.110500000     -0.347623229    
  0.111000001     -0.363011599    
  0.111500002     -0.379025102    
  0.112000003     -0.395686895    
  0.112499997     -0.413021535    
  0.112999998     -0.431054771    
  0.113499999     -0.449813068    
  0.114000000     -0.469323218    
  0.114500001     -0.489611536    
  0.115000002     -0.510710537    
  0.115500003     -0.532647014    
  0.115999997     -0.555450797    
  0.116499998     -0.579155266    
  0.116999999     -0.603790820    
  0.117500000     -0.629388809    
  0.118000001     -0.655986547    
  0.118500002     -0.683614969    
  0.119000003     -0.712305963    
  0.119499996     -0.742097735    
  0.119999997     -0.773023903    
  0.120499998     -0.805119932    
  0.120999999     -0.838427305    
  0.121500000     -0.872983336    
  0.122000001     -0.908826470    
  0.122500002     -0.945997834    
  0.123000003     -0.984535992    
  0.123499997      -1.02448368    
  0.123999998      -1.06588554    
  0.124499999      -1.10879290    
  0.125000000      -1.15324831    
  0.125499994      -1.19930327    
  0.126000002      -1.24700165    
  0.126499996      -1.29640269    
  0.127000004      -1.34755480    
  0.127499998      -1.40050924    
  0.128000006      -1.45532322    
  0.128500000      -1.51205850    
  0.128999993      -1.57075918    
  0.129500002      -1.63149202    
  0.129999995      -1.69432187    
  0.130500004      -1.75929952    
  0.130999997      -1.82649601    
  0.131500006      -1.89596403    
  0.131999999      -1.96777797    
  0.132499993      -2.04199171    
  0.133000001      -2.11866927    
  0.133499995      -2.19789100    
  0.134000003      -2.27971816    
  0.134499997      -2.36421967    
  0.135000005      -2.45145559    
  0.135499999      -2.54150414    
  0.136000007      -2.63443375    
  0.136500001      -2.73032403    
  0.136999995      -2.82924962    
  0.137500003      -2.93128204    
  0.137999997      -3.03650141    
  0.138500005      -3.14497948    
  0.138999999      -3.25679564    
  0.139500007      -3.37202883    
  0.140000001      -3.49076414    
  0.140499994      -3.61308646    
  0.141000003      -3.73907304    
  0.141499996      -3.86880565    
  0.142000005      -4.00237465    
  0.142499998      -4.13985968    
  0.143000007      -4.28136253    
  0.143500000      -4.42695045    
  0.143999994      -4.57672215    
  0.144500002      -4.73077250    
  0.144999996      -4.88915777    
  0.145500004      -5.05200624    
  0.145999998      -5.21937561    
  0.146500006      -5.39137363    
  0.147000000      -5.56808186    
  0.147499993      -5.74958611    
  0.148000002      -5.93595266    
  0.148499995      -6.12729979    
  0.149000004      -6.32365942    
  0.149499997      -6.52518654    
  0.150000006      -6.73192501    
  0.150500000      -6.94399118    
  0.150999993      -7.16145945    
  0.151500002      -7.38436556    
  0.151999995      -7.61283684    
  0.152500004      -7.84691381    
  0.152999997      -8.08674240    
  0.153500006      -8.33233261    
  0.153999999      -8.58376789    
  0.154499993      -8.84119129    
  0.155000001      -9.10465145    
  0.155499995      -9.37414742    
  0.156000003      -9.64986706    
  0.156499997      -9.93181896    
  0.157000005      -10.2200804    
  0.157499999      -10.5146961    
  0.158000007      -10.8156815    
  0.158500001      -11.1231880    
  0.158999994      -11.4372091    
  0.159500003      -11.7577820    
  0.159999996      -12.0849743    
  0.160500005      -12.4188471    
  0.160999998      -12.7593746    
  0.161500007      -13.1066341    
  0.162000000      -13.4606476    
  0.162499994      -13.8214140    
  0.163000003      -14.1888332    
  0.163499996      -14.5630960    
  0.164000005      -14.9440727    
  0.164499998      -15.3319349    
  0.165000007      -15.7264681    
  0.165500000      -16.1277885    
  0.165999994      -16.5359039    
  0.166500002      -16.9506073    
  0.166999996      -17.3720779    
  0.167500004      -17.8001175    
  0.167999998      -18.2348289    
  0.168500006      -18.6760044    
  0.169000000      -19.1236916    
  0.169499993      -19.5776558    
  0.170000002      -20.0379601    
  0.170499995      -20.5043602    
  0.171000004      -20.9769344    
  0.171499997      -21.4554386    
  0.172000006      -21.9398232    
  0.172499999      -22.4298744    
  0.172999993      -22.9254684    
  0.173500001      -23.4263763    
  0.173999995      -23.9325771    
  0.174500003      -24.4435825    
  0.174999997      -24.9594879    
  0.175500005      -25.4797478    
  0.175999999      -26.0044117    
  0.176499993      -26.5333385    
  0.177000001      -27.0660133    
  0.177499995      -27.6022911    
  0.178000003      -28.1418133    
  0.178499997      -28.6844749    
  0.179000005      -29.2298985    
  0.179499999      -29.7777138    
  0.180000007      -30.3277054    
  0.180500001      -30.8794823    
  0.180999994      -31.4325600    
  0.181500003      -31.9866333    
  0.181999996      -32.5414085    
  0.182500005      -33.0963020    
  0.182999998      -33.6508217    
  0.183500007      -34.2046547    
  0.184000000      -34.7570724    
  0.184499994      -35.3078232    
  0.185000002      -35.8563881    
  0.185499996      -36.4020500    
  0.186000004      -36.9443092    
  0.186499998      -37.4825211    
  0.187000006      -38.0161743    
  0.187500000      -38.5447464    
  0.187999994      -39.0678482    
  0.188500002      -39.5845604    
  0.188999996      -40.0944023    
  0.189500004      -40.5964432    
  0.189999998      -41.0900688    
  0.190500006      -41.5745087    
  0.191000000      -42.0492172    
  0.191499993      -42.5136986    
  0.192000002      -42.9667130    
  0.192499995      -43.4076920    
  0.193000004      -43.8358269    
  0.193499997      -44.2501526    
  0.194000006      -44.6498795    
  0.194499999      -45.0347328    
  0.194999993      -45.4032135    
  0.195500001      -45.7541046    
  0.195999995      -46.0872192    
  0.196500003      -46.4008217    
  0.196999997      -46.6946335    
  0.197500005      -46.9673042    
  0.197999999      -47.2181778    
  0.198500007      -47.4456558    
  0.199000001      -47.6491585    
  0.199499995      -47.8277855    
  0.200000003      -47.9805946    
  0.200499997      -48.1058960    
  0.201000005      -48.2033997    
  0.201499999      -48.2719078    
  0.202000007      -48.3101883    
  0.202500001      -48.3171043    
  0.202999994      -48.2918243    
  0.203500003      -48.2328644    
  0.203999996      -48.1393471    
  0.204500005      -48.0096169    
  0.204999998      -47.8431854    
  0.205500007      -47.6387062    
  0.206000000      -47.3951225    
  0.206499994      -47.1117935    
  0.207000002      -46.7859840    
  0.207499996      -46.4182129    
  0.208000004      -46.0071068    
  0.208499998      -45.5502510    
  0.209000006      -45.0487328    
  0.209500000      -44.4996529    
  0.209999993      -43.9018135    
  0.210500002      -43.2548752    
  0.210999995      -42.5574913    
  0.211500004      -41.8088760    
  0.211999997      -41.0076714    
  0.212500006      -40.1536064    
  0.213000000      -39.2441139    
  0.213499993      -38.2790413    
  0.214000002      -37.2588844    
  0.214499995      -36.1791496    
  0.215000004      -35.0419960    
  0.215499997      -33.8449745    
  0.216000006      -32.5860977    
  0.216499999      -31.2654724    
  0.216999993      -29.8832397    
  0.217500001      -28.4375801    
  0.217999995      -26.9270172    
  0.218500003      -25.3515491    
  0.218999997      -23.7111874    
  0.219500005      -22.0046520    
  0.219999999      -20.2307320    
  0.220500007      -18.3892078    
  0.221000001      -16.4798546    
  0.221499994      -14.5018320    
  0.222000003      -12.4556217    
  0.222499996      -10.3412848    
  0.223000005      -8.15690422    
  0.223499998      -5.90281153    
  0.224000007      -3.57711005    
  0.224500000      -1.18309832    
  0.224999994       1.28241754    
  0.225500003       3.81672168    
  0.225999996       6.42245483    
  0.226500005       9.10007668    
  0.226999998       11.8468485    
  0.227500007       14.6642284    
  0.228000000       17.5526924    
  0.228499994       20.5101070    
  0.229000002       23.5370655    
  0.229499996       26.6340904    
  0.230000004       29.7975082    
  0.230499998       33.0295448    
  0.231000006       36.3274078    
  0.231500000       39.6926842    
  0.231999993       43.1233444    
  0.232500002       46.6163979    
  0.232999995       50.1744347    
  0.233500004       53.7924194    
  0.233999997       57.4715652    
  0.234500006       61.2089615    
  0.234999999       65.0051956    
  0.235499993       68.8569183    
  0.236000001       72.7614746    
  0.236499995       76.7196045    
  0.237000003       80.7300186    
  0.237499997       84.7889709    
  0.238000005       88.8942871    
  0.238499999       93.0447311    
  0.238999993       97.2381897    
  0.239500001       101.471107    
  0.239999995       105.743668    
  0.240500003       110.051407    
  0.240999997       114.391380    
  0.241500005       118.761719    
  0.241999999       123.160561    
  0.242500007       127.583076    
  0.243000001       132.028519    
  0.243499994       136.490738    
  0.244000003       140.968445    
  0.244499996       145.458694    
  0.245000005       149.956207    
  0.245499998       154.460907    
  0.246000007       158.966537    
  0.246500000       163.469757    
  0.246999994       167.968414    
  0.247500002       172.457169    
  0.247999996       176.932159    
  0.248500004       181.391541    
  0.248999998       185.828461    
  0.249500006       190.238754    
  0.250000000       194.620193    
  0.250499994       198.967499    
  0.250999987       203.276886    
  0.251500010       207.543594    
  0.252000004       211.763916    
  0.252499998       215.931015    
  0.252999991       220.043045    
  0.253500015       224.095398    
  0.254000008       228.080597    
  0.254500002       231.995743    
  0.254999995       235.836548    
  0.255499989       239.597275    
  0.256000012       243.271866    
  0.256500006       246.857758    
  0.256999999       250.349564    
  0.257499993       253.742340    
  0.257999986       257.030853    
  0.258500010       260.209839    
  0.259000003       263.275360    
  0.259499997       266.222870    
  0.259999990       269.046234    
  0.260500014       271.742920    
  0.261000007       274.305573    
  0.261500001       276.732178    
  0.261999995       279.016693    
  0.262499988       281.153595    
  0.263000011       283.139465    
  0.263500005       284.968964    
  0.263999999       286.637665    
  0.264499992       288.139587    
  0.264999986       289.472351    
  0.265500009       290.630676    
  0.266000003       291.610626    
  0.266499996       292.406982    
  0.266999990       293.015625    
  0.267500013       293.433380    
  0.268000007       293.655273    
  0.268500000       293.677002    
  0.268999994       293.496552    
  0.269499987       293.109863    
  0.270000011       292.513550    
  0.270500004       291.703125    
  0.270999998       290.677643    
  0.271499991       289.433075    
  0.272000015       287.966492    
  0.272500008       286.275574    
  0.273000002       284.358612    
  0.273499995       282.212280    
  0.273999989       279.834869    
  0.274500012       277.224274    
  0.275000006       274.378906    
  0.275500000       271.296692    
  0.275999993       267.976227    
  0.276499987       264.416199    
  0.277000010       260.615967    
  0.277500004       256.574219    
  0.277999997       252.290039    
  0.278499991       247.762970    
  0.279000014       242.993286    
  0.279500008       237.981049    
  0.280000001       232.725952    
  0.280499995       227.228745    
  0.280999988       221.490982    
  0.281500012       215.513092    
  0.282000005       209.296295    
  0.282499999       202.841919    
  0.282999992       196.152649    
  0.283499986       189.229156    
  0.284000009       182.075012    
  0.284500003       174.692184    
  0.284999996       167.083313    
  0.285499990       159.252960    
  0.286000013       151.203262    
  0.286500007       142.937286    
  0.287000000       134.460022    
  0.287499994       125.774673    
  0.287999988       116.885361    
  0.288500011       107.797478    
  0.289000005       98.5147324    
  0.289499998       89.0425720    
  0.289999992       79.3857269    
  0.290499985       69.5502548    
  0.291000009       59.5418854    
  0.291500002       49.3667412    
  0.291999996       39.0300407    
  0.292499989       28.5388527    
  0.293000013       17.9018612    
  0.293500006       7.12291384    
  0.294000000      -3.78902721    
  0.294499993      -14.8250351    
  0.294999987      -25.9793015    
  0.295500010      -37.2417259    
  0.296000004      -48.6104469    
  0.296499997      -60.0738029    
  0.296999991      -71.6246719    
  0.297500014      -83.2528305    
  0.298000008      -94.9502335    
  0.298500001      -106.705986    
  0.298999995      -118.513176    
  0.299499989      -130.361206    
  0.300000012      -142.243683    
  0.300500005      -154.150650    
  0.300999999      -166.070114    
  0.301499993      -177.993576    
  0.301999986      -189.910416    
  0.302500010      -201.814438    
  0.303000003      -213.694321    
  0.303499997      -225.537674    
  0.303999990      -237.331924    
  0.304500014      -249.072311    
  0.305000007      -260.746582    
  0.305500001      -272.346466    
  0.305999994      -283.860931    
  0.306499988      -295.277496    
  0.307000011      -306.588501    
  0.307500005      -317.781128    
  0.307999998      -328.843292    
  0.308499992      -339.771851    
  0.308999985      -350.552826    
  0.309500009      -361.174194    
  0.310000002      -371.627167    
  0.310499996      -381.905487    
  0.310999990      -391.991302    
  0.311500013      -401.881226    
  0.312000006      -411.566986    
  0.312500000      -421.035828    
  0.312999994      -430.279449    
  0.313499987      -439.283905    
  0.314000010      -448.049286    
  0.314500004      -456.559357    
  0.314999998      -464.813782    
  0.315499991      -472.794403    
  0.316000015      -480.501038    
  0.316500008      -487.922028    
  0.317000002      -495.048279    
  0.317499995      -501.873138    
  0.317999989      -508.386810    
  0.318500012      -514.583740    
  0.319000006      -520.458069    
  0.319499999      -526.001404    
  0.319999993      -531.205933    
  0.320499986      -536.065125    
  0.321000010      -540.579712    
  0.321500003      -544.739990    
  0.321999997      -548.539307    
  0.322499990      -551.976318    
  0.323000014      -555.040527    
  0.323500007      -557.733948    
  0.324000001      -560.050232    
  0.324499995      -561.983093    
  0.324999988      -563.531860    
  0.325500011      -564.693848    
  0.326000005      -565.470032    
  0.326499999      -565.854370    
  0.326999992      -565.849365    
  0.327499986      -565.447754    
  0.328000009      -564.657593    
  0.328500003      -563.467896    
  0.328999996      -561.884216    
  0.329499990      -559.902344    
  0.330000013      -557.525391    
  0.330500007      -554.755249    
  0.331000000      -551.590881    
  0.331499994      -548.034302    
  0.331999987      -544.090271    
  0.332500011      -539.758301    
  0.333000004      -535.041260    
  0.333499998      -529.943237    
  0.333999991      -524.464050    
  0.334500015      -518.612549    
  0.335000008      -512.387451    
  0.335500002      -505.797607    
  0.335999995      -498.848694    
  0.336499989      -491.545166    
  0.337000012      -483.889771    
  0.337500006      -475.892853    
  0.338000000      -467.558563    
  0.338499993      -458.893555    
  0.338999987      -449.904114    
  0.339500010      -440.599640    
  0.340000004      -430.989319    
  0.340499997      -421.075958    
  0.340999991      -410.868408    
  0.341500014      -400.378723    
  0.342000008      -389.612183    
  0.342500001      -378.577026    
  0.342999995      -367.283813    
  0.343499988      -355.742767    
  0.344000012      -343.963989    
  0.344500005      -331.954865    
  0.344999999      -319.726227    
  0.345499992      -307.290741    
  0.345999986      -294.658356    
  0.346500009      -281.835602    
  0.347000003      -268.838013    
  0.347499996      -255.675171    
  0.347999990      -242.358932    
  0.348500013      -228.901611    
  0.349000007      -215.312454    
  0.349500000      -201.603790    
  0.349999994      -187.788315    
  0.350499988      -173.875992    
  0.351000011      -159.880402    
  0.351500005      -145.812576    
  0.351999998      -131.685013    
  0.352499992      -117.508377    
  0.352999985      -103.296005    
  0.353500009      -89.0575943    
  0.354000002      -74.8064575    
  0.354499996      -60.5542755    
  0.354999989      -46.3118591    
  0.355500013      -32.0911217    
  0.356000006      -17.9029903    
  0.356500000      -3.75881052    
  0.356999993       10.3293705    
  0.357499987       24.3511753    
  0.358000010       38.2947884    
  0.358500004       52.1491203    
  0.358999997       65.9041901    
  0.359499991       79.5483017    
  0.360000014       93.0718307    
  0.360500008       106.463066    
  0.361000001       119.712761    
  0.361499995       132.809937    
  0.361999989       145.744324    
  0.362500012       158.506927    
  0.363000005       171.086792    
  0.363499999       183.475540    
  0.363999993       195.663757    
  0.364499986       207.641418    
  0.365000010       219.401138    
  0.365500003       230.932983    
  0.365999997       242.230911    
  0.366499990       253.286255    
  0.367000014       264.091064    
  0.367500007       274.639069    
  0.368000001       284.922729    
  0.368499994       294.935669    
  0.368999988       304.673492    
  0.369500011       314.129974    
  0.370000005       323.297455    
  0.370499998       332.173187    
  0.370999992       340.753387    
  0.371499985       349.029175    
  0.372000009       357.002625    
  0.372500002       364.665955    
  0.372999996       372.018372    
  0.373499990       379.053558    
  0.374000013       385.771942    
  0.374500006       392.168732    
  0.375000000       398.241486    
  0.375499994       403.990448    
  0.375999987       409.409912    
  0.376500010       414.503906    
  0.377000004       419.268585    
  0.377499998       423.704041    
  0.377999991       427.811798    
  0.378500015       431.588043    
  0.379000008       435.033539    
  0.379500002       438.150696    
  0.379999995       440.941559    
  0.380499989       443.406494    
  0.381000012       445.549133    
  0.381500006       447.366486    
  0.381999999       448.865417    
  0.382499993       450.046478    
  0.382999986       450.914612    
  0.383500010       451.468384    
  0.384000003       451.716125    
  0.384499997       451.662048    
  0.384999990       451.307892    
  0.385500014       450.658813    
  0.386000007       449.716644    
  0.386500001       448.487030    
  0.386999995       446.976807    
  0.387499988       445.191132    
  0.388000011       443.133392    
  0.388500005       440.810822    
  0.388999999       438.229248    
  0.389499992       435.392517    
  0.389999986       432.309509    
  0.390500009       428.984344    
  0.391000003       425.423279    
  0.391499996       421.633667    
  0.391999990       417.620972    
  0.392500013       413.392548    
  0.393000007       408.954926    
  0.393500000       404.316711    
  0.393999994       399.486084    
  0.394499987       394.465363    
  0.395000011       389.267273    
  0.395500004       383.897614    
  0.395999998       378.364105    
  0.396499991       372.674011    
  0.397000015       366.834503    
  0.397500008       360.849426    
  0.398000002       354.732086    
  0.398499995       348.487244    
  0.398999989       342.122589    
  0.399500012       335.645538    
  0.400000006       329.062744    
  0.400500000       322.383057    
  0.400999993       315.612366    
  0.401499987       308.760345    
  0.402000010       301.830658    
  0.402500004       294.832153    
  0.402999997       287.773132    
  0.403499991       280.660004    
  0.404000014       273.498688    
  0.404500008       266.296783    
  0.405000001       259.063446    
  0.405499995       251.802246    
  0.405999988       244.523758    
  0.406500012       237.231155    
  0.407000005       229.930725    
  0.407499999       222.631027    
  0.407999992       215.336761    
  0.408499986       208.052811    
  0.409000009       200.786377    
  0.409500003       193.544189    
  0.409999996       186.330338    
  0.410499990       179.151169    
  0.411000013       172.011734    
  0.411500007       164.914047    
  0.412000000       157.868164    
  0.412499994       150.874023    
  0.412999988       143.938416    
  0.413500011       137.065460    
  0.414000005       130.259064    
  0.414499998       123.520912    
  0.414999992       116.858360    
  0.415499985       110.272514    
  0.416000009       103.768265    
  0.416500002       97.3453217    
  0.416999996       91.0118561    
  0.417499989       84.7675629    
  0.418000013       78.6157913    
  0.418500006       72.5598373    
  0.419000000       66.6003952    
  0.419499993       60.7410049    
  0.419999987       54.9846115    
  0.420500010       49.3297958    
  0.421000004       43.7806511    
  0.421499997       38.3382339    
  0.421999991       33.0023689    
  0.422500014       27.7760010    
  0.423000008       22.6586266    
  0.423500001       17.6527843    
  0.423999995       12.7554522    
  0.424499989       7.97023106    
  0.425000012       3.29669070    
  0.425500005      -1.26611221    
  0.425999999      -5.71775913    
  0.426499993      -10.0584869    
  0.426999986      -14.2880220    
  0.427500010      -18.4077263    
  0.428000003      -22.4183064    