   0.00000000       0.00000000    
   5.00000024E-04   0.00000000    
   1.00000005E-03   0.00000000    
   1.50000001E-03   0.00000000    
   2.00000009E-03   5.52557699E-21
   2.49999994E-03   4.50235603E-20
   3.00000003E-03   1.97852090E-19
   3.50000011E-03   6.14540239E-19
   4.00000019E-03   1.48690875E-18
   4.49999981E-03   2.90038123E-18
   4.99999989E-03   4.48298805E-18
   5.49999997E-03   4.76502355E-18
   6.00000005E-03   1.89097055E-19
   6.50000013E-03  -1.62315187E-17
   7.00000022E-03  -5.65169896E-17
   7.49999983E-03  -1.39379986E-16
   8.00000038E-03  -2.91600224E-16
   8.50000046E-03  -5.48650716E-16
   8.99999961E-03  -9.54020620E-16
   9.49999969E-03  -1.55665079E-15
   9.99999978E-03  -2.40595833E-15
   1.04999999E-02  -3.54409152E-15
   1.09999999E-02  -4.99535521E-15
   1.15000000E-02  -6.75312984E-15
   1.20000001E-02  -8.76511981E-15
   1.25000002E-02  -1.09182886E-14
   1.30000003E-02  -1.30253728E-14
   1.35000004E-02  -1.48153178E-14
   1.40000004E-02  -1.59302300E-14
   1.44999996E-02  -1.59315293E-14
   1.49999997E-02  -1.43176131E-14
   1.54999997E-02  -1.05548615E-14
   1.60000008E-02  -4.12264911E-15
   1.64999999E-02   5.42819751E-15
   1.70000009E-02   1.84057092E-14
   1.75000001E-02   3.48998581E-14
   1.79999992E-02   5.47041829E-14
   1.85000002E-02   7.72433468E-14
   1.89999994E-02   1.01515191E-13
   1.95000004E-02   1.26056609E-13
   1.99999996E-02   1.48942219E-13
   2.05000006E-02   1.67824034E-13
   2.09999997E-02   1.80018056E-13
   2.15000007E-02   1.82641107E-13
   2.19999999E-02   1.72796822E-13
   2.25000009E-02   1.47805908E-13
   2.30000000E-02   1.05470266E-13
   2.34999992E-02   4.43561102E-14
   2.40000002E-02  -3.59234296E-14
   2.44999994E-02  -1.34449079E-13
   2.50000004E-02  -2.48784852E-13
   2.54999995E-02  -3.74841651E-13
   2.60000005E-02  -5.06839254E-13
   2.64999997E-02  -6.37386411E-13
   2.70000007E-02  -7.57694092E-13
   2.74999999E-02  -8.57927228E-13
   2.80000009E-02  -9.27691734E-13
   2.85000000E-02  -9.56642860E-13
   2.89999992E-02  -9.35188125E-13
   2.95000002E-02  -8.55250495E-13
   2.99999993E-02  -7.11044559E-13
   3.05000003E-02  -4.99813461E-13
   3.09999995E-02  -2.22470358E-13
   3.15000005E-02   1.15913057E-13
   3.20000015E-02   5.05824712E-13
   3.24999988E-02   9.33280905E-13
   3.29999998E-02   1.38007943E-12
   3.35000008E-02   1.82435339E-12
   3.40000018E-02   2.24142319E-12
   3.44999991E-02   2.60492409E-12
   3.50000001E-02   2.88816562E-12
   3.55000012E-02   3.06565992E-12
   3.59999985E-02   3.11473243E-12
   3.64999995E-02   3.01713038E-12
   3.70000005E-02   2.76051599E-12
   3.75000015E-02   2.33974927E-12
   3.79999988E-02   1.75785645E-12
   3.84999998E-02   1.02660100E-12
   3.90000008E-02   1.66592529E-13
   3.95000018E-02  -7.93110477E-13
   3.99999991E-02  -1.81591190E-12
   4.05000001E-02  -2.85908450E-12
   4.10000011E-02  -3.87561554E-12
   4.14999984E-02  -4.81640639E-12
   4.19999994E-02  -5.63271521E-12
   4.25000004E-02  -6.27870412E-12
   4.30000015E-02  -6.71395274E-12
   4.34999987E-02  -6.90577890E-12
   4.39999998E-02  -6.83122395E-12
   4.45000008E-02  -6.47857549E-12
   4.50000018E-02  -5.84832660E-12
   4.54999991E-02  -4.95349291E-12
   4.60000001E-02  -3.81926045E-12
   4.65000011E-02  -2.48197708E-12
   4.69999984E-02  -9.87532647E-13
   4.74999994E-02   6.10772663E-13
   4.80000004E-02   2.25475042E-12
   4.85000014E-02   3.88408142E-12
   4.89999987E-02   5.43914306E-12
   4.94999997E-02   6.86373050E-12
   5.00000007E-02   8.10751032E-12
   5.05000018E-02   9.12806115E-12
   5.09999990E-02   9.89239246E-12
   5.15000001E-02   1.03778583E-11
   5.20000011E-02   1.05724379E-11
   5.24999984E-02   1.04744069E-11
   5.29999994E-02   1.00914563E-11
   5.35000004E-02   9.43935641E-12
   5.40000014E-02   8.54031602E-12
   5.44999987E-02   7.42117479E-12
   5.49999997E-02   6.11160645E-12
   5.55000007E-02   4.64249299E-12
   5.60000017E-02   3.04459713E-12
   5.64999990E-02   1.34765192E-12
   5.70000000E-02  -4.20070147E-13
   5.75000010E-02  -2.23169660E-12
   5.79999983E-02  -4.06123355E-12
   5.84999993E-02  -5.88267412E-12
   5.90000004E-02  -7.66886728E-12
   5.95000014E-02  -9.39031318E-12
   5.99999987E-02  -1.10140681E-11
   6.04999997E-02  -1.25029596E-11
   6.10000007E-02  -1.38152744E-11
   6.15000017E-02  -1.49050824E-11
   6.19999990E-02  -1.57232838E-11
   6.25000000E-02  -1.62194182E-11
   6.30000010E-02  -1.63442194E-11
   6.35000020E-02  -1.60527876E-11
   6.40000030E-02  -1.53082356E-11
   6.44999966E-02  -1.40855340E-11
   6.49999976E-02  -1.23753048E-11
   6.54999986E-02  -1.01872148E-11
   6.59999996E-02  -7.55267029E-12
   6.65000007E-02  -4.52648813E-12
   6.70000017E-02  -1.18729440E-12
   6.75000027E-02   2.36355380E-12
   6.80000037E-02   6.00462128E-12
   6.84999973E-02   9.59861704E-12
   6.89999983E-02   1.29980870E-11
   6.94999993E-02   1.60523279E-11
   7.00000003E-02   1.86152049E-11
   7.05000013E-02   2.05534409E-11
   7.10000023E-02   2.17548635E-11
   7.15000033E-02   2.21361002E-11
   7.19999969E-02   2.16491963E-11
   7.24999979E-02   2.02866057E-11
   7.29999989E-02   1.80841835E-11
   7.34999999E-02   1.51218291E-11
   7.40000010E-02   1.15215884E-11
   7.45000020E-02   7.44318236E-12
   7.50000030E-02   3.07711322E-12
   7.54999965E-02  -1.36438484E-12
   7.59999976E-02  -5.65808381E-12
   7.64999986E-02  -9.58160808E-12
   7.69999996E-02  -1.29257126E-11
   7.75000006E-02  -1.55062647E-11
   7.80000016E-02  -1.71751675E-11
   7.85000026E-02  -1.78295451E-11
   7.90000036E-02  -1.74185354E-11
   7.94999972E-02  -1.59472591E-11
   7.99999982E-02  -1.34775932E-11
   8.04999992E-02  -1.01256850E-11
   8.10000002E-02  -6.05624838E-12
   8.15000013E-02  -1.47398847E-12
   8.20000023E-02   3.38738759E-12
   8.25000033E-02   8.27788359E-12
   8.29999968E-02   1.29448882E-11
   8.34999979E-02   1.71469349E-11
   8.39999989E-02   2.06666854E-11
   8.44999999E-02   2.33223094E-11
   8.50000009E-02   2.49765226E-11
   8.55000019E-02   2.55427294E-11
   8.60000029E-02   2.49878868E-11
   8.64999965E-02   2.33319596E-11
   8.69999975E-02   2.06440490E-11
   8.74999985E-02   1.70355622E-11
   8.79999995E-02   1.26509211E-11
   8.85000005E-02   7.65661666E-12
   8.90000015E-02   2.22941218E-12
   8.95000026E-02  -3.45534842E-12
   9.00000036E-02  -9.23442052E-12
   9.04999971E-02  -1.49654612E-11
   9.09999982E-02  -2.05332730E-11
   9.14999992E-02  -2.58529587E-11
   9.20000002E-02  -3.08697373E-11
   9.25000012E-02  -3.55554579E-11
   9.30000022E-02  -3.99020504E-11
   9.35000032E-02  -4.39125715E-11
   9.39999968E-02  -4.75905183E-11
   9.44999978E-02  -5.09285288E-11
   9.49999988E-02  -5.38974143E-11
   9.54999998E-02  -5.64367754E-11
   9.60000008E-02  -5.84481560E-11
   9.65000018E-02  -5.97916786E-11
   9.70000029E-02  -6.02868519E-11
   9.74999964E-02  -5.97179320E-11
   9.79999974E-02  -5.78437957E-11
   9.84999985E-02  -5.44121345E-11
   9.89999995E-02  -4.91771068E-11
   9.95000005E-02  -4.19195026E-11
  0.100000001      -3.24680109E-11
  0.100500003      -2.07201027E-11
  0.101000004      -6.66082380E-12
  0.101499997       9.62212081E-12
  0.101999998       2.79285189E-11
  0.102499999       4.79423237E-11
  0.103000000       6.92357421E-11
  0.103500001       9.12811909E-11
  0.104000002       1.13471191E-10
  0.104500003       1.35145381E-10
  0.104999997       1.55623819E-10
  0.105499998       1.74244688E-10
  0.105999999       1.90404442E-10
  0.106500000       2.03598083E-10
  0.107000001       2.13456947E-10
  0.107500002       2.19781360E-10
  0.108000003       2.22565882E-10
  0.108499996       2.22015059E-10
  0.108999997       2.18547763E-10
  0.109499998       2.12789480E-10
  0.109999999       2.05552103E-10
  0.110500000       1.97801359E-10
  0.111000001       1.90613789E-10
  0.111500002       1.85124541E-10
  0.112000003       1.82469193E-10
  0.112499997       1.83722482E-10
  0.112999998       1.89837646E-10
  0.113499999       2.01589967E-10
  0.114000000       2.19528243E-10
  0.114500001       2.43937537E-10
  0.115000002       2.74815976E-10
  0.115500003       3.11867726E-10
  0.115999997       3.54513419E-10
  0.116499998       4.01918221E-10
  0.116999999       4.53036858E-10
  0.117500000       5.06673481E-10
  0.118000001       5.61553748E-10
  0.118500002       6.16405260E-10
  0.119000003       6.70042299E-10
  0.119499996       7.21449400E-10
  0.119999997       7.69859898E-10
  0.120499998       8.14823209E-10
  0.120999999       8.56257898E-10
  0.121500000       8.94485819E-10
  0.122000001       9.30244992E-10
  0.122500002       9.64679781E-10
  0.123000003       9.99307970E-10
  0.123499997       1.03596531E-09
  0.123999998       1.07673070E-09
  0.124499999       1.12383503E-09
  0.125000000       1.17955923E-09
  0.125499994       1.24612543E-09
  0.126000002       1.32558908E-09
  0.126499996       1.41973644E-09
  0.127000004       1.52999613E-09
  0.127499998       1.65736724E-09
  0.128000006       1.80237014E-09
  0.128500000       1.96502437E-09
  0.128999993       2.14485474E-09
  0.129500002       2.34092457E-09
  0.129999995       2.55190002E-09
  0.130500004       2.77613643E-09
  0.130999997       3.01178837E-09
  0.131500006       3.25693317E-09
  0.131999999       3.50970653E-09
  0.132499993       3.76843623E-09
  0.133000001       4.03177536E-09
  0.133499995       4.29881997E-09
  0.134000003       4.56920857E-09
  0.134499997       4.84319784E-09
  0.135000005       5.12170750E-09
  0.135499999       5.40633538E-09
  0.136000007       5.69933833E-09
  0.136500001       6.00357941E-09
  0.136999995       6.32244967E-09
  0.137500003       6.65976074E-09
  0.137999997       7.01961822E-09
  0.138500005       7.40628447E-09
  0.138999999       7.82403831E-09
  0.139500007       8.27703062E-09
  0.140000001       8.76916051E-09
  0.140499994       9.30396560E-09
  0.141000003       9.88453763E-09
  0.141499996       1.05134701E-08
  0.142000005       1.11928378E-08
  0.142499998       1.19242189E-08
  0.143000007       1.27087390E-08
  0.143500000       1.35471625E-08
  0.143999994       1.44400021E-08
  0.144500002       1.53876538E-08
  0.144999996       1.63905494E-08
  0.145500004       1.74493131E-08
  0.145999998       1.85649149E-08
  0.146500006       1.97388133E-08
  0.147000000       2.09730988E-08
  0.147499993       2.22705712E-08
  0.148000002       2.36348292E-08
  0.148499995       2.50703014E-08
  0.149000004       2.65822404E-08
  0.149499997       2.81767019E-08
  0.150000006       2.98604590E-08
  0.150500000       3.16409263E-08
  0.150999993       3.35260104E-08
  0.151500002       3.55239997E-08
  0.151999995       3.76434173E-08
  0.152500004       3.98928819E-08
  0.152999997       4.22809698E-08
  0.153500006       4.48161259E-08
  0.153999999       4.75065782E-08
  0.154499993       5.03602919E-08
  0.155000001       5.33849551E-08
  0.155499995       5.65880391E-08
  0.156000003       5.99768200E-08
  0.156499997       6.35585380E-08
  0.157000005       6.73405154E-08
  0.157499999       7.13303407E-08
  0.158000007       7.55360148E-08
  0.158500001       7.99661777E-08
  0.158999994       8.46303010E-08
  0.159500003       8.95388723E-08
  0.159999996       9.47035232E-08
  0.160500005       1.00137207E-07
  0.160999998       1.05854305E-07
  0.161500007       1.11870655E-07
  0.162000000       1.18203594E-07
  0.162499994       1.24871974E-07
  0.163000003       1.31896059E-07
  0.163499996       1.39297498E-07
  0.164000005       1.47099158E-07
  0.164499998       1.55325040E-07
  0.165000007       1.64000099E-07
  0.165500000       1.73150156E-07
  0.165999994       1.82801756E-07
  0.166500002       1.92982014E-07
  0.166999996       2.03718614E-07
  0.167500004       2.15039748E-07
  0.167999998       2.26974066E-07
  0.168500006       2.39550786E-07
  0.169000000       2.52799737E-07
  0.169499993       2.66751442E-07
  0.170000002       2.81437480E-07
  0.170499995       2.96890420E-07
  0.171000004       3.13144227E-07
  0.171499997       3.30234428E-07
  0.172000006       3.48198427E-07
  0.172499999       3.67075614E-07
  0.172999993       3.86907715E-07
  0.173500001       4.07738952E-07
  0.173999995       4.29616250E-07
  0.174500003       4.52589319E-07
  0.174999997       4.76710795E-07
  0.175500005       5.02036414E-07
  0.175999999       5.28624753E-07
  0.176499993       5.56537657E-07
  0.177000001       5.85839871E-07
  0.177499995       6.16599209E-07
  0.178000003       6.48886328E-07
  0.178499997       6.82774953E-07
  0.179000005       7.18341369E-07
  0.179499999       7.55664871E-07
  0.180000007       7.94827542E-07
  0.180500001       8.35914307E-07
  0.180999994       8.79012930E-07
  0.181500003       9.24214305E-07
  0.181999996       9.71612280E-07
  0.182500005       1.02130412E-06
  0.182999998       1.07339065E-06
  0.183500007       1.12797647E-06
  0.184000000       1.18517005E-06
  0.184499994       1.24508449E-06
  0.185000002       1.30783712E-06
  0.185499996       1.37355028E-06
  0.186000004       1.44235173E-06
  0.186499998       1.51437439E-06
  0.187000006       1.58975718E-06
  0.187500000       1.66864459E-06
  0.187999994       1.75118771E-06
  0.188500002       1.83754366E-06
  0.188999996       1.92787638E-06
  0.189500004       2.02235606E-06
  0.189999998       2.12116038E-06
  0.190500006       2.22447261E-06
  0.191000000       2.33248511E-06
  0.191499993       2.44539569E-06
  0.192000002       2.56341036E-06
  0.192499995       2.68674194E-06
  0.193000004       2.81561142E-06
  0.193499997       2.95024779E-06
  0.194000006       3.09088728E-06
  0.194499999       3.23777522E-06
  0.194999993       3.39116559E-06
  0.195500001       3.55132011E-06
  0.195999995       3.71851092E-06
  0.196500003       3.89301931E-06
  0.196999997       4.07513608E-06
  0.197500005       4.26516317E-06
  0.197999999       4.46341255E-06
  0.198500007       4.67020664E-06
  0.199000001       4.88588057E-06
  0.199499995       5.11077997E-06
  0.200000003       5.34526362E-06
  0.200499997       5.58970123E-06
  0.201000005       5.84447753E-06
  0.201499999       6.10998723E-06
  0.202000007       6.38664142E-06
  0.202500001       6.67486211E-06
  0.202999994       6.97508631E-06
  0.203500003       7.28776649E-06
  0.203999996       7.61336605E-06
  0.204500005       7.95236610E-06
  0.204999998       8.30526096E-06
  0.205500007       8.67256131E-06
  0.206000000       9.05479465E-06
  0.206499994       9.45250031E-06
  0.207000002       9.86623945E-06
  0.207499996       1.02965869E-05
  0.208000004       1.07441365E-05
  0.208499998       1.12094967E-05
  0.209000006       1.16932997E-05
  0.209500000       1.21961930E-05
  0.209999993       1.27188450E-05
  0.210500002       1.32619434E-05
  0.210999995       1.38261985E-05
  0.211500004       1.44123387E-05
  0.211999997       1.50211172E-05
  0.212500006       1.56533060E-05
  0.213000000       1.63096975E-05
  0.213499993       1.69911145E-05
  0.214000002       1.76983995E-05
  0.214499995       1.84324144E-05
  0.215000004       1.91940471E-05
  0.215499997       1.99842070E-05
  0.216000006       2.08038346E-05
  0.216499999       2.16538901E-05
  0.216999993       2.25353542E-05
  0.217500001       2.34492400E-05
  0.217999995       2.43965787E-05
  0.218500003       2.53784328E-05
  0.218999997       2.63958864E-05
  0.219500005       2.74500508E-05
  0.219999999       2.85420665E-05
  0.220500007       2.96730959E-05
  0.221000001       3.08443305E-05
  0.221499994       3.20569925E-05
  0.222000003       3.33123280E-05
  0.222499996       3.46116212E-05
  0.223000005       3.59561745E-05
  0.223499998       3.73473231E-05
  0.224000007       3.87864347E-05
  0.224500000       4.02749065E-05
  0.224999994       4.18141681E-05
  0.225500003       4.34056819E-05
  0.225999996       4.50509324E-05
  0.226500005       4.67514437E-05
  0.226999998       4.85087694E-05
  0.227500007       5.03244992E-05
  0.228000000       5.22002483E-05
  0.228499994       5.41376648E-05
  0.229000002       5.61384259E-05
  0.229499996       5.82042485E-05
  0.230000004       6.03368644E-05
  0.230499998       6.25380562E-05
  0.231000006       6.48096029E-05
  0.231500000       6.71533562E-05
  0.231999993       6.95711642E-05
  0.232500002       7.20649186E-05
  0.232999995       7.46365404E-05
  0.233500004       7.72879721E-05
  0.233999997       8.00211856E-05
  0.234500006       8.28381890E-05
  0.234999999       8.57410196E-05
  0.235499993       8.87317219E-05
  0.236000001       9.18123988E-05
  0.236499995       9.49851601E-05
  0.237000003       9.82521451E-05
  0.237499997       1.01615507E-04
  0.238000005       1.05077459E-04
  0.238499999       1.08640212E-04
  0.238999993       1.12306014E-04
  0.239500001       1.16077121E-04
  0.239999995       1.19955832E-04
  0.240500003       1.23944468E-04
  0.240999997       1.28045358E-04
  0.241500005       1.32260844E-04
  0.241999999       1.36593299E-04
  0.242500007       1.41045137E-04
  0.243000001       1.45618731E-04
  0.243499994       1.50316511E-04
  0.244000003       1.55140893E-04
  0.244499996       1.60094307E-04
  0.245000005       1.65179226E-04
  0.245499998       1.70398082E-04
  0.246000007       1.75753332E-04
  0.246500000       1.81247451E-04
  0.246999994       1.86882884E-04
  0.247500002       1.92662061E-04
  0.247999996       1.98587470E-04
  0.248500004       2.04661541E-04
  0.248999998       2.10886719E-04
  0.249500006       2.17265420E-04
  0.250000000       2.23800060E-04
  0.250499994       2.30493009E-04
  0.250999987       2.37346685E-04
  0.251500010       2.44363415E-04
  0.252000004       2.51545600E-04
  0.252499998       2.58895423E-04
  0.252999991       2.66415271E-04
  0.253500015       2.74107326E-04
  0.254000008       2.81973858E-04
  0.254500002       2.90017022E-04
  0.254999995       2.98238971E-04
  0.255499989       3.06641741E-04
  0.256000012       3.15227488E-04
  0.256500006       3.23998102E-04
  0.256999999       3.32955562E-04
  0.257499993       3.42101790E-04
  0.257999986       3.51438619E-04
  0.258500010       3.60967795E-04
  0.259000003       3.70691007E-04
  0.259499997       3.80609854E-04
  0.259999990       3.90725880E-04
  0.260500014       4.01040539E-04
  0.261000007       4.11555142E-04
  0.261500001       4.22270939E-04
  0.261999995       4.33189125E-04
  0.262499988       4.44310688E-04
  0.263000011       4.55636618E-04
  0.263500005       4.67167643E-04
  0.263999999       4.78904549E-04
  0.264499992       4.90847917E-04
  0.264999986       5.02998068E-04
  0.265500009       5.15355379E-04
  0.266000003       5.27920085E-04
  0.266499996       5.40692126E-04
  0.266999990       5.53671503E-04
  0.267500013       5.66857867E-04
  0.268000007       5.80250751E-04
  0.268500000       5.93849691E-04
  0.268999994       6.07653987E-04
  0.269499987       6.21662650E-04
  0.270000011       6.35874632E-04
  0.270500004       6.50288595E-04
  0.270999998       6.64903258E-04
  0.271499991       6.79716875E-04
  0.272000015       6.94727583E-04
  0.272500008       7.09933345E-04
  0.273000002       7.25331891E-04
  0.273499995       7.40920717E-04
  0.273999989       7.56697147E-04
  0.274500012       7.72658095E-04
  0.275000006       7.88800593E-04
  0.275500000       8.05121032E-04
  0.275999993       8.21615802E-04
  0.276499987       8.38280946E-04
  0.277000010       8.55112274E-04
  0.277500004       8.72105360E-04
  0.277999997       8.89255432E-04
  0.278499991       9.06557543E-04
  0.279000014       9.24006396E-04
  0.279500008       9.41596460E-04
  0.280000001       9.59322031E-04
  0.280499995       9.77176824E-04
  0.280999988       9.95154609E-04
  0.281500012       1.01324869E-03
  0.282000005       1.03145209E-03
  0.282499999       1.04975759E-03
  0.282999992       1.06815749E-03
  0.283499986       1.08664390E-03
  0.284000009       1.10520888E-03
  0.284500003       1.12384371E-03
  0.284999996       1.14253978E-03
  0.285499990       1.16128789E-03
  0.286000013       1.18007860E-03
  0.286500007       1.19890226E-03
  0.287000000       1.21774862E-03
  0.287499994       1.23660732E-03
  0.287999988       1.25546753E-03
  0.288500011       1.27431832E-03
  0.289000005       1.29314803E-03
  0.289499998       1.31194526E-03
  0.289999992       1.33069756E-03
  0.290499985       1.34939258E-03
  0.291000009       1.36801787E-03
  0.291500002       1.38656003E-03
  0.291999996       1.40500593E-03
  0.292499989       1.42334169E-03
  0.293000013       1.44155324E-03
  0.293500006       1.45962648E-03
  0.294000000       1.47754641E-03
  0.294499993       1.49529835E-03
  0.294999987       1.51286682E-03
  0.295500010       1.53023633E-03
  0.296000004       1.54739094E-03
  0.296499997       1.56431459E-03
  0.296999991       1.58099050E-03
  0.297500014       1.59740227E-03
  0.298000008       1.61353278E-03
  0.298500001       1.62936491E-03
  0.298999995       1.64488109E-03
  0.299499989       1.66006328E-03
  0.300000012       1.67489378E-03
  0.300500005       1.68935431E-03
  0.300999999       1.70342624E-03
  0.301499993       1.71709107E-03
  0.301999986       1.73032982E-03
  0.302500010       1.74312328E-03
  0.303000003       1.75545225E-03
  0.303499997       1.76729716E-03
  0.303999990       1.77863857E-03
  0.304500014       1.78945658E-03
  0.305000007       1.79973117E-03
  0.305500001       1.80944242E-03
  0.305999994       1.81857031E-03
  0.306499988       1.82709447E-03
  0.307000011       1.83499500E-03
  0.307500005       1.84225140E-03
  0.307999998       1.84884341E-03
  0.308499992       1.85475068E-03
  0.308999985       1.85995293E-03
  0.309500009       1.86442968E-03
  0.310000002       1.86816079E-03
  0.310499996       1.87112589E-03
  0.310999990       1.87330495E-03
  0.311500013       1.87467772E-03
  0.312000006       1.87522441E-03
  0.312500000       1.87492487E-03
  0.312999994       1.87375955E-03
  0.313499987       1.87170866E-03
  0.314000010       1.86875288E-03
  0.314500004       1.86487287E-03
  0.314999998       1.86004979E-03
  0.315499991       1.85426488E-03
  0.316000015       1.84749963E-03
  0.316500008       1.83973589E-03
  0.317000002       1.83095585E-03
  0.317499995       1.82114239E-03
  0.317999989       1.81027816E-03
  0.318500012       1.79834676E-03
  0.319000006       1.78533187E-03
  0.319499999       1.77121791E-03
  0.319999993       1.75598974E-03
  0.320499986       1.73963269E-03
  0.321000010       1.72213232E-03
  0.321500003       1.70347525E-03
  0.321999997       1.68364833E-03
  0.322499990       1.66263885E-03
  0.323000014       1.64043508E-03
  0.323500007       1.61702570E-03
  0.324000001       1.59239979E-03
  0.324499995       1.56654743E-03
  0.324999988       1.53945934E-03
  0.325500011       1.51112676E-03
  0.326000005       1.48154201E-03
  0.326499999       1.45069801E-03
  0.326999992       1.41858822E-03
  0.327499986       1.38520752E-03
  0.328000009       1.35055103E-03
  0.328500003       1.31461537E-03
  0.328999996       1.27739785E-03
  0.329499990       1.23889651E-03
  0.330000013       1.19911064E-03
  0.330500007       1.15804060E-03
  0.331000000       1.11568766E-03
  0.331499994       1.07205380E-03
  0.331999987       1.02714251E-03
  0.332500011       9.80958343E-04
  0.333000004       9.33506410E-04
  0.333499998       8.84793408E-04
  0.333999991       8.34826671E-04
  0.334500015       7.83614814E-04
  0.335000008       7.31167500E-04
  0.335500002       6.77495380E-04
  0.335999995       6.22610271E-04
  0.336499989       5.66525036E-04
  0.337000012       5.09253761E-04
  0.337500006       4.50811465E-04
  0.338000000       3.91214475E-04
  0.338499993       3.30480223E-04
  0.338999987       2.68627336E-04
  0.339500010       2.05675664E-04
  0.340000004       1.41646218E-04
  0.340499997       7.65613077E-05
  0.340999991       1.04444398E-05
  0.341500014      -5.66795898E-05
  0.342000008      -1.24784725E-04
  0.342500001      -1.93843749E-04
  0.342999995      -2.63828144E-04
  0.343499988      -3.34708195E-04
  0.344000012      -4.06452891E-04
  0.344500005      -4.79030161E-04
  0.344999999      -5.52406651E-04
  0.345499992      -6.26547844E-04
  0.345999986      -7.01418205E-04
  0.346500009      -7.76981004E-04
  0.347000003      -8.53198639E-04
  0.347499996      -9.30032402E-04
  0.347999990      -1.00744236E-03
  0.348500013      -1.08538801E-03
  0.349000007      -1.16382737E-03
  0.349500000      -1.24271784E-03
  0.349999994      -1.32201589E-03
  0.350499988      -1.40167703E-03
  0.351000011      -1.48165587E-03
  0.351500005      -1.56190596E-03
  0.351999998      -1.64238014E-03
  0.352499992      -1.72303047E-03
  0.352999985      -1.80380803E-03
  0.353500009      -1.88466278E-03
  0.354000002      -1.96554465E-03
  0.354499996      -2.04640185E-03
  0.354999989      -2.12718267E-03
  0.355500013      -2.20783404E-03
  0.356000006      -2.28830264E-03
  0.356500000      -2.36853422E-03
  0.356999993      -2.44847452E-03
  0.357499987      -2.52806791E-03
  0.358000010      -2.60725943E-03
  0.358500004      -2.68599275E-03
  0.358999997      -2.76421197E-03
  0.359499991      -2.84186052E-03
  0.360000014      -2.91888136E-03
  0.360500008      -2.99521838E-03
  0.361000001      -3.07081454E-03
  0.361499995      -3.14561254E-03
  0.361999989      -3.21955606E-03
  0.362500012      -3.29258805E-03
  0.363000005      -3.36465216E-03
  0.363499999      -3.43569205E-03
  0.363999993      -3.50565114E-03
  0.364499986      -3.57447402E-03
  0.365000010      -3.64210457E-03
  0.365500003      -3.70848808E-03
  0.365999997      -3.77357029E-03
  0.366499990      -3.83729604E-03
  0.367000014      -3.89961223E-03
  0.367500007      -3.96046508E-03
  0.368000001      -4.01980290E-03
  0.368499994      -4.07757284E-03
  0.368999988      -4.13372461E-03
  0.369500011      -4.18820791E-03
  0.370000005      -4.24097385E-03
  0.370499998      -4.29197308E-03
  0.370999992      -4.34115855E-03
  0.371499985      -4.38848464E-03
  0.372000009      -4.43390524E-03
  0.372500002      -4.47737658E-03
  0.372999996      -4.51885583E-03
  0.373499990      -4.55830200E-03
  0.374000013      -4.59567364E-03
  0.374500006      -4.63093305E-03
  0.375000000      -4.66404250E-03
  0.375499994      -4.69496707E-03
  0.375999987      -4.72367136E-03
  0.376500010      -4.75012325E-03
  0.377000004      -4.77429200E-03
  0.377499998      -4.79614874E-03
  0.377999991      -4.81566647E-03
  0.378500015      -4.83281910E-03
  0.379000008      -4.84758336E-03
  0.379500002      -4.85993875E-03
  0.379999995      -4.86986432E-03
  0.380499989      -4.87734284E-03
  0.381000012      -4.88235941E-03
  0.381500006      -4.88489959E-03
  0.381999999      -4.88495314E-03
  0.382499993      -4.88250982E-03
  0.382999986      -4.87756357E-03
  0.383500010      -4.87010786E-03
  0.384000003      -4.86014085E-03
  0.384499997      -4.84766206E-03
  0.384999990      -4.83267242E-03
  0.385500014      -4.81517566E-03
  0.386000007      -4.79517831E-03
  0.386500001      -4.77268826E-03
  0.386999995      -4.74771578E-03
  0.387499988      -4.72027389E-03
  0.388000011      -4.69037751E-03
  0.388500005      -4.65804385E-03
  0.388999999      -4.62329248E-03
  0.389499992      -4.58614575E-03
  0.389999986      -4.54662787E-03
  0.390500009      -4.50476538E-03
  0.391000003      -4.46058763E-03
  0.391499996      -4.41412581E-03
  0.391999990      -4.36541485E-03
  0.392500013      -4.31448920E-03
  0.393000007      -4.26138844E-03
  0.393500000      -4.20615310E-03
  0.393999994      -4.14882554E-03
  0.394499987      -4.08945186E-03
  0.395000011      -4.02807863E-03
  0.395500004      -3.96475522E-03
  0.395999998      -3.89953353E-03
  0.396499991      -3.83246667E-03
  0.397000015      -3.76361050E-03
  0.397500008      -3.69302207E-03
  0.398000002      -3.62076052E-03
  0.398499995      -3.54688684E-03
  0.398999989      -3.47146345E-03
  0.399500012      -3.39455460E-03
  0.400000006      -3.31622642E-03
  0.400500000      -3.23654665E-03
  0.400999993      -3.15558375E-03
  0.401499987      -3.07340873E-03
  0.402000010      -2.99009332E-03
  0.402500004      -2.90571107E-03
  0.402999997      -2.82033766E-03
  0.403499991      -2.73404876E-03
  0.404000014      -2.64692167E-03
  0.404500008      -2.55903509E-03
  0.405000001      -2.47046934E-03
  0.405499995      -2.38130498E-03
  0.405999988      -2.29162374E-03
  0.406500012      -2.20150780E-03
  0.407000005      -2.11104122E-03
  0.407499999      -2.02030735E-03
  0.407999992      -1.92939071E-03
  0.408499986      -1.83837616E-03
  0.409000009      -1.74734858E-03
  0.409500003      -1.65639352E-03
  0.409999996      -1.56559597E-03
  0.410499990      -1.47504162E-03
  0.411000013      -1.38481567E-03
  0.411500007      -1.29500311E-03
  0.412000000      -1.20568892E-03
  0.412499994      -1.11695775E-03
  0.412999988      -1.02889363E-03
  0.413500011      -9.41580278E-04
  0.414000005      -8.55100923E-04
  0.414499998      -7.69538339E-04
  0.414999992      -6.84974308E-04
  0.415499985      -6.01489912E-04
  0.416000009      -5.19165595E-04
  0.416500002      -4.38080751E-04
  0.416999996      -3.58313671E-04
  0.417499989      -2.79941829E-04
  0.418000013      -2.03041403E-04
  0.418500006      -1.27687163E-04
  0.419000000      -5.39526336E-05
  0.419499993       1.80903826E-05
  0.419999987       8.83714820E-05
  0.420500010       1.56822076E-04
  0.421000004       2.23375551E-04
  0.421499997       2.87967094E-04
  0.421999991       3.50534072E-04
  0.422500014       4.11016023E-04
  0.423000008       4.69354476E-04
  0.423500001       5.25493408E-04
  0.423999995       5.79379092E-04
  0.424499989       6.30960509E-04
  0.425000012       6.80188590E-04
  0.425500005       7.27017061E-04
  0.425999999       7.71402149E-04
  0.426499993       8.13302468E-04
  0.426999986       8.52679252E-04
  0.427500010       8.89496354E-04
  0.428000003       9.23720072E-04