   0.00000000       0.00000000    
   5.00000024E-04  -1.05170386E-12
   1.00000005E-03  -3.07085173E-12
   1.50000001E-03  -5.82847702E-12
   2.00000009E-03  -8.98254908E-12
   2.49999994E-03  -1.21255037E-11
   3.00000003E-03  -1.48422854E-11
   3.50000011E-03  -1.67718183E-11
   4.00000019E-03  -1.76642381E-11
   4.49999981E-03  -1.74264821E-11
   4.99999989E-03  -1.61499963E-11
   5.49999997E-03  -1.41161700E-11
   6.00000005E-03  -1.17776648E-11
   6.50000013E-03  -9.71653140E-12
   7.00000022E-03  -8.58293905E-12
   7.49999983E-03  -9.02092290E-12
   8.00000038E-03  -1.15895861E-11
   8.50000046E-03  -1.66894450E-11
   8.99999961E-03  -2.45038885E-11
   9.49999969E-03  -3.49648505E-11
   9.99999978E-03  -4.77499082E-11
   1.04999999E-02  -6.23152085E-11
   1.09999999E-02  -7.79649539E-11
   1.15000000E-02  -9.39542680E-11
   1.20000001E-02  -1.09617974E-10
   1.25000002E-02  -1.24514329E-10
   1.30000003E-02  -1.38569420E-10
   1.35000004E-02  -1.52206317E-10
   1.40000004E-02  -1.66441916E-10
   1.44999996E-02  -1.82936388E-10
   1.49999997E-02  -2.03981304E-10
   1.54999997E-02  -2.32418140E-10
   1.60000008E-02  -2.71482864E-10
   1.64999999E-02  -3.24579752E-10
   1.70000009E-02  -3.94993233E-10
   1.75000001E-02  -4.85554985E-10
   1.79999992E-02  -5.98287198E-10
   1.85000002E-02  -7.34050043E-10
   1.89999994E-02  -8.92223184E-10
   1.95000004E-02  -1.07045217E-09
   1.99999996E-02  -1.26449062E-09
   2.05000006E-02  -1.46816170E-09
   2.09999997E-02  -1.67346070E-09
   2.15000007E-02  -1.87080795E-09
   2.19999999E-02  -2.04945327E-09
   2.25000009E-02  -2.19802132E-09
   2.30000000E-02  -2.30517561E-09
   2.34999992E-02  -2.36037123E-09
   2.40000002E-02  -2.35464803E-09
   2.44999994E-02  -2.28142172E-09
   2.50000004E-02  -2.13721596E-09
   2.54999995E-02  -1.92228033E-09
   2.60000005E-02  -1.64104463E-09
   2.64999997E-02  -1.30236488E-09
   2.70000007E-02  -9.19523513E-10
   2.74999999E-02  -5.09965625E-10
   2.80000009E-02  -9.47647238E-11
   2.85000000E-02   3.02171982E-10
   2.89999992E-02   6.55126120E-10
   2.95000002E-02   9.37778966E-10
   2.99999993E-02   1.12454246E-09
   3.05000003E-02   1.19194632E-09
   3.09999995E-02   1.11999365E-09
   3.15000005E-02   8.93408403E-10
   3.20000015E-02   5.02691888E-10
   3.24999988E-02  -5.50872681E-11
   3.29999998E-02  -7.75827957E-10
   3.35000008E-02  -1.64830127E-09
   3.40000018E-02  -2.65445199E-09
   3.44999991E-02  -3.77009535E-09
   3.50000001E-02  -4.96598984E-09
   3.55000012E-02  -6.20924023E-09
   3.59999985E-02  -7.46496198E-09
   3.64999995E-02  -8.69813110E-09
   3.70000005E-02  -9.87551108E-09
   3.75000015E-02  -1.09675566E-08
   3.79999988E-02  -1.19501902E-08
   3.84999998E-02  -1.28063382E-08
   3.90000008E-02  -1.35271447E-08
   3.95000018E-02  -1.41127838E-08
   3.99999991E-02  -1.45728078E-08
   4.05000001E-02  -1.49260195E-08
   4.10000011E-02  -1.51998485E-08
   4.14999984E-02  -1.54292721E-08
   4.19999994E-02  -1.56553259E-08
   4.25000004E-02  -1.59232734E-08
   4.30000015E-02  -1.62805609E-08
   4.34999987E-02  -1.67746368E-08
   4.39999998E-02  -1.74507591E-08
   4.45000008E-02  -1.83499402E-08
   4.50000018E-02  -1.95071035E-08
   4.54999991E-02  -2.09495798E-08
   4.60000001E-02  -2.26960246E-08
   4.65000011E-02  -2.47557974E-08
   4.69999984E-02  -2.71288627E-08
   4.74999994E-02  -2.98061913E-08
   4.80000004E-02  -3.27706609E-08
   4.85000014E-02  -3.59983616E-08
   4.89999987E-02  -3.94603177E-08
   4.94999997E-02  -4.31244018E-08
   5.00000007E-02  -4.69574424E-08
   5.05000018E-02  -5.09273761E-08
   5.09999990E-02  -5.50053016E-08
   5.15000001E-02  -5.91673341E-08
   5.20000011E-02  -6.33962216E-08
   5.24999984E-02  -6.76825493E-08
   5.29999994E-02  -7.20255571E-08
   5.35000004E-02  -7.64335084E-08
   5.40000014E-02  -8.09235772E-08
   5.44999987E-02  -8.55213713E-08
   5.49999997E-02  -9.02600092E-08
   5.55000007E-02  -9.51789545E-08
   5.60000017E-02  -1.00322545E-07
   5.64999990E-02  -1.05738465E-07
   5.70000000E-02  -1.11476140E-07
   5.75000010E-02  -1.17585252E-07
   5.79999983E-02  -1.24114337E-07
   5.84999993E-02  -1.31109658E-07
   5.90000004E-02  -1.38614411E-07
   5.95000014E-02  -1.46668185E-07
   5.99999987E-02  -1.55306878E-07
   6.04999997E-02  -1.64562806E-07
   6.10000007E-02  -1.74465356E-07
   6.15000017E-02  -1.85041699E-07
   6.19999990E-02  -1.96317856E-07
   6.25000000E-02  -2.08319904E-07
   6.30000010E-02  -2.21075211E-07
   6.35000020E-02  -2.34613651E-07
   6.40000030E-02  -2.48968803E-07
   6.44999966E-02  -2.64178880E-07
   6.49999976E-02  -2.80287708E-07
   6.54999986E-02  -2.97345082E-07
   6.59999996E-02  -3.15407277E-07
   6.65000007E-02  -3.34536878E-07
   6.70000017E-02  -3.54802694E-07
   6.75000027E-02  -3.76279388E-07
   6.80000037E-02  -3.99046684E-07
   6.84999973E-02  -4.23188794E-07
   6.89999983E-02  -4.48793571E-07
   6.94999993E-02  -4.75951907E-07
   7.00000003E-02  -5.04756713E-07
   7.05000013E-02  -5.35302604E-07
   7.10000023E-02  -5.67685561E-07
   7.15000033E-02  -6.02002387E-07
   7.19999969E-02  -6.38351139E-07
   7.24999979E-02  -6.76831235E-07
   7.29999989E-02  -7.17544083E-07
   7.34999999E-02  -7.60593764E-07
   7.40000010E-02  -8.06087940E-07
   7.45000020E-02  -8.54139216E-07
   7.50000030E-02  -9.04865999E-07
   7.54999965E-02  -9.58394025E-07
   7.59999976E-02  -1.01485762E-06
   7.64999986E-02  -1.07440030E-06
   7.69999996E-02  -1.13717726E-06
   7.75000006E-02  -1.20335471E-06
   7.80000016E-02  -1.27311216E-06
   7.85000026E-02  -1.34664253E-06
   7.90000036E-02  -1.42415240E-06
   7.94999972E-02  -1.50586300E-06
   7.99999982E-02  -1.59201011E-06
   8.04999992E-02  -1.68284407E-06
   8.10000002E-02  -1.77863012E-06
   8.15000013E-02  -1.87964827E-06
   8.20000023E-02  -1.98619296E-06
   8.25000033E-02  -2.09857330E-06
   8.29999968E-02  -2.21711298E-06
   8.34999979E-02  -2.34215054E-06
   8.39999989E-02  -2.47403909E-06
   8.44999999E-02  -2.61314676E-06
   8.50000009E-02  -2.75985735E-06
   8.55000019E-02  -2.91457036E-06
   8.60000029E-02  -3.07770279E-06
   8.64999965E-02  -3.24968755E-06
   8.69999975E-02  -3.43097804E-06
   8.74999985E-02  -3.62204605E-06
   8.79999995E-02  -3.82338430E-06
   8.85000005E-02  -4.03550666E-06
   8.90000015E-02  -4.25895223E-06
   8.95000026E-02  -4.49428262E-06
   9.00000036E-02  -4.74208719E-06
   9.04999971E-02  -5.00298165E-06
   9.09999982E-02  -5.27761131E-06
   9.14999992E-02  -5.56665327E-06
   9.20000002E-02  -5.87081468E-06
   9.25000012E-02  -6.19083858E-06
   9.30000022E-02  -6.52750350E-06
   9.35000032E-02  -6.88162390E-06
   9.39999968E-02  -7.25405380E-06
   9.44999978E-02  -7.64568904E-06
   9.49999988E-02  -8.05746640E-06
   9.54999998E-02  -8.49036769E-06
   9.60000008E-02  -8.94541972E-06
   9.65000018E-02  -9.42369934E-06
   9.70000029E-02  -9.92633159E-06
   9.74999964E-02  -1.04544952E-05
   9.79999974E-02  -1.10094206E-05
   9.84999985E-02  -1.15923995E-05
   9.89999995E-02  -1.22047750E-05
   9.95000005E-02  -1.28479569E-05
  0.100000001      -1.35234177E-05
  0.100500003      -1.42326935E-05
  0.101000004      -1.49773896E-05
  0.101499997      -1.57591840E-05
  0.101999998      -1.65798265E-05
  0.102499999      -1.74411434E-05
  0.103000000      -1.83450466E-05
  0.103500001      -1.92935222E-05
  0.104000002      -2.02886495E-05
  0.104500003      -2.13325966E-05
  0.104999997      -2.24276173E-05
  0.105499998      -2.35760745E-05
  0.105999999      -2.47804237E-05
  0.106500000      -2.60432262E-05
  0.107000001      -2.73671521E-05
  0.107500002      -2.87549847E-05
  0.108000003      -3.02096214E-05
  0.108499996      -3.17340819E-05
  0.108999997      -3.33315111E-05
  0.109499998      -3.50051923E-05
  0.109999999      -3.67585271E-05
  0.110500000      -3.85950771E-05
  0.111000001      -4.05185310E-05
  0.111500002      -4.25327380E-05
  0.112000003      -4.46417034E-05
  0.112499997      -4.68495891E-05
  0.112999998      -4.91607316E-05
  0.113499999      -5.15796346E-05
  0.114000000      -5.41109875E-05
  0.114500001      -5.67596799E-05
  0.115000002      -5.95307647E-05
  0.115500003      -6.24295353E-05
  0.115999997      -6.54614632E-05
  0.116499998      -6.86322601E-05
  0.116999999      -7.19478412E-05
  0.117500000      -7.54143693E-05
  0.118000001      -7.90382473E-05
  0.118500002      -8.28261109E-05
  0.119000003      -8.67848939E-05
  0.119499996      -9.09217488E-05
  0.119999997      -9.52441260E-05
  0.120499998      -9.97597672E-05
  0.120999999      -1.04476683E-04
  0.121500000      -1.09403198E-04
  0.122000001      -1.14547962E-04
  0.122500002      -1.19919932E-04
  0.123000003      -1.25528401E-04
  0.123499997      -1.31383014E-04
  0.123999998      -1.37493742E-04
  0.124499999      -1.43870944E-04
  0.125000000      -1.50525331E-04
  0.125499994      -1.57468035E-04
  0.126000002      -1.64710582E-04
  0.126499996      -1.72264874E-04
  0.127000004      -1.80143252E-04
  0.127499998      -1.88358521E-04
  0.128000006      -1.96923924E-04
  0.128500000      -2.05853154E-04
  0.128999993      -2.15160399E-04
  0.129500002      -2.24860356E-04
  0.129999995      -2.34968160E-04
  0.130500004      -2.45499570E-04
  0.130999997      -2.56470783E-04
  0.131500006      -2.67898606E-04
  0.131999999      -2.79800443E-04
  0.132499993      -2.92194221E-04
  0.133000001      -3.05098511E-04
  0.133499995      -3.18532431E-04
  0.134000003      -3.32515861E-04
  0.134499997      -3.47069203E-04
  0.135000005      -3.62213614E-04
  0.135499999      -3.77970922E-04
  0.136000007      -3.94363567E-04
  0.136500001      -4.11414832E-04
  0.136999995      -4.29148669E-04
  0.137500003      -4.47589817E-04
  0.137999997      -4.66763770E-04
  0.138500005      -4.86696837E-04
  0.138999999      -5.07416145E-04
  0.139500007      -5.28949662E-04
  0.140000001      -5.51326200E-04
  0.140499994      -5.74575388E-04
  0.141000003      -5.98727900E-04
  0.141499996      -6.23815227E-04
  0.142000005      -6.49869675E-04
  0.142499998      -6.76924712E-04
  0.143000007      -7.05014740E-04
  0.143500000      -7.34175148E-04
  0.143999994      -7.64442259E-04
  0.144500002      -7.95853615E-04
  0.144999996      -8.28447635E-04
  0.145500004      -8.62263900E-04
  0.145999998      -8.97343270E-04
  0.146500006      -9.33727308E-04
  0.147000000      -9.71459260E-04
  0.147499993      -1.01058313E-03
  0.148000002      -1.05114456E-03
  0.148499995      -1.09318993E-03
  0.149000004      -1.13676710E-03
  0.149499997      -1.18192530E-03
  0.150000006      -1.22871471E-03
  0.150500000      -1.27718714E-03
  0.150999993      -1.32739544E-03
  0.151500002      -1.37939421E-03
  0.151999995      -1.43323909E-03
  0.152500004      -1.48898724E-03
  0.152999997      -1.54669699E-03
  0.153500006      -1.60642853E-03
  0.153999999      -1.66824332E-03
  0.154499993      -1.73220376E-03
  0.155000001      -1.79837446E-03
  0.155499995      -1.86682167E-03
  0.156000003      -1.93761208E-03
  0.156499997      -2.01081485E-03
  0.157000005      -2.08650087E-03
  0.157499999      -2.16474175E-03
  0.158000007      -2.24561174E-03
  0.158500001      -2.32918514E-03
  0.158999994      -2.41553946E-03
  0.159500003      -2.50475318E-03
  0.159999996      -2.59690615E-03
  0.160500005      -2.69208080E-03
  0.160999998      -2.79036001E-03
  0.161500007      -2.89182877E-03
  0.162000000      -2.99657439E-03
  0.162499994      -3.10468487E-03
  0.163000003      -3.21625127E-03
  0.163499996      -3.33136483E-03
  0.164000005      -3.45011917E-03
  0.164499998      -3.57260928E-03
  0.165000007      -3.69893271E-03
  0.165500000      -3.82918748E-03
  0.165999994      -3.96347418E-03
  0.166500002      -4.10189480E-03
  0.166999996      -4.24455339E-03
  0.167500004      -4.39155474E-03
  0.167999998      -4.54300595E-03
  0.168500006      -4.69901646E-03
  0.169000000      -4.85969521E-03
  0.169499993      -5.02515538E-03
  0.170000002      -5.19550918E-03
  0.170499995      -5.37087303E-03
  0.171000004      -5.55136334E-03
  0.171499997      -5.73709700E-03
  0.172000006      -5.92819508E-03
  0.172499999      -6.12477819E-03
  0.172999993      -6.32696878E-03
  0.173500001      -6.53489074E-03
  0.173999995      -6.74866838E-03
  0.174500003      -6.96842978E-03
  0.174999997      -7.19430158E-03
  0.175500005      -7.42641417E-03
  0.175999999      -7.66489701E-03
  0.176499993      -7.90988002E-03
  0.177000001      -8.16149637E-03
  0.177499995      -8.41987971E-03
  0.178000003      -8.68516322E-03
  0.178499997      -8.95748287E-03
  0.179000005      -9.23697278E-03
  0.179499999      -9.52377077E-03
  0.180000007      -9.81801376E-03
  0.180500001      -1.01198377E-02
  0.180999994      -1.04293823E-02
  0.181500003      -1.07467845E-02
  0.181999996      -1.10721830E-02
  0.182500005      -1.14057167E-02
  0.182999998      -1.17475251E-02
  0.183500007      -1.20977461E-02
  0.184000000      -1.24565186E-02
  0.184499994      -1.28239803E-02
  0.185000002      -1.32002681E-02
  0.185499996      -1.35855200E-02
  0.186000004      -1.39798736E-02
  0.186499998      -1.43834623E-02
  0.187000006      -1.47964228E-02
  0.187500000      -1.52188875E-02
  0.187999994      -1.56509858E-02
  0.188500002      -1.60928518E-02
  0.188999996      -1.65446158E-02
  0.189500004      -1.70064010E-02
  0.189999998      -1.74783375E-02
  0.190500006      -1.79605484E-02
  0.191000000      -1.84531510E-02
  0.191499993      -1.89562645E-02
  0.192000002      -1.94700081E-02
  0.192499995      -1.99944936E-02
  0.193000004      -2.05298290E-02
  0.193499997      -2.10761260E-02
  0.194000006      -2.16334835E-02
  0.194499999      -2.22020037E-02
  0.194999993      -2.27817819E-02
  0.195500001      -2.33729128E-02
  0.195999995      -2.39754785E-02
  0.196500003      -2.45895684E-02
  0.196999997      -2.52152588E-02
  0.197500005      -2.58526225E-02
  0.197999999      -2.65017264E-02
  0.198500007      -2.71626376E-02
  0.199000001      -2.78354101E-02
  0.199499995      -2.85200924E-02
  0.200000003      -2.92167310E-02
  0.200499997      -2.99253706E-02
  0.201000005      -3.06460317E-02
  0.201499999      -3.13787460E-02
  0.202000007      -3.21235247E-02
  0.202500001      -3.28803845E-02
  0.202999994      -3.36493254E-02
  0.203500003      -3.44303362E-02
  0.203999996      -3.52234058E-02
  0.204500005      -3.60285118E-02
  0.204999998      -3.68456207E-02
  0.205500007      -3.76746878E-02
  0.206000000      -3.85156684E-02
  0.206499994      -3.93684916E-02
  0.207000002      -4.02330980E-02
  0.207499996      -4.11094017E-02
  0.208000004      -4.19973060E-02
  0.208499998      -4.28967141E-02
  0.209000006      -4.38075066E-02
  0.209500000      -4.47295643E-02
  0.209999993      -4.56627458E-02
  0.210500002      -4.66069020E-02
  0.210999995      -4.75618728E-02
  0.211500004      -4.85274829E-02
  0.211999997      -4.95035462E-02
  0.212500006      -5.04898615E-02
  0.213000000      -5.14862165E-02
  0.213499993      -5.24923801E-02
  0.214000002      -5.35081066E-02
  0.214499995      -5.45331575E-02
  0.215000004      -5.55672497E-02
  0.215499997      -5.66101000E-02
  0.216000006      -5.76614141E-02
  0.216499999      -5.87208793E-02
  0.216999993      -5.97881563E-02
  0.217500001      -6.08628988E-02
  0.217999995      -6.19447604E-02
  0.218500003      -6.30333573E-02
  0.218999997      -6.41282797E-02
  0.219500005      -6.52291328E-02
  0.219999999      -6.63354844E-02
  0.220500007      -6.74469024E-02
  0.221000001      -6.85629100E-02
  0.221499994      -6.96830451E-02
  0.222000003      -7.08068013E-02
  0.222499996      -7.19336644E-02
  0.223000005      -7.30631128E-02
  0.223499998      -7.41946027E-02
  0.224000007      -7.53275827E-02
  0.224500000      -7.64614418E-02
  0.224999994      -7.75955990E-02
  0.225500003      -7.87294358E-02
  0.225999996      -7.98623189E-02
  0.226500005      -8.09936002E-02
  0.226999998      -8.21226016E-02
  0.227500007      -8.32486451E-02
  0.228000000      -8.43710229E-02
  0.228499994      -8.54890049E-02
  0.229000002      -8.66018683E-02
  0.229499996      -8.77088457E-02
  0.230000004      -8.88091624E-02
  0.230499998      -8.99020284E-02
  0.231000006      -9.09866393E-02
  0.231500000      -9.20621753E-02
  0.231999993      -9.31277797E-02
  0.232500002      -9.41826105E-02
  0.232999995      -9.52257812E-02
  0.233500004      -9.62564126E-02
  0.233999997      -9.72735882E-02
  0.234500006      -9.82763991E-02
  0.234999999      -9.92639214E-02
  0.235499993     -0.100235179    
  0.236000001     -0.101189218    
  0.236499995     -0.102125071    
  0.237000003     -0.103041746    
  0.237499997     -0.103938244    
  0.238000005     -0.104813538    
  0.238499999     -0.105666608    
  0.238999993     -0.106496423    
  0.239500001     -0.107301913    
  0.239999995     -0.108082049    
  0.240500003     -0.108835742    
  0.240999997     -0.109561928    
  0.241500005     -0.110259503    
  0.241999999     -0.110927403    
  0.242500007     -0.111564510    
  0.243000001     -0.112169720    
  0.243499994     -0.112741917    
  0.244000003     -0.113279998    
  0.244499996     -0.113782831    
  0.245000005     -0.114249296    
  0.245499998     -0.114678279    
  0.246000007     -0.115068652    
  0.246500000     -0.115419269    
  0.246999994     -0.115729034    
  0.247500002     -0.115996793    
  0.247999996     -0.116221443    
  0.248500004     -0.116401874    
  0.248999998     -0.116536953    
  0.249500006     -0.116625562    
  0.250000000     -0.116666615    
  0.250499994     -0.116659015    
  0.250999987     -0.116601676    
  0.251500010     -0.116493523    
  0.252000004     -0.116333470    
  0.252499998     -0.116120480    
  0.252999991     -0.115853511    
  0.253500015     -0.115531527    
  0.254000008     -0.115153521    
  0.254500002     -0.114718504    
  0.254999995     -0.114225484    
  0.255499989     -0.113673501    
  0.256000012     -0.113061614    
  0.256500006     -0.112388909    
  0.256999999     -0.111654498    
  0.257499993     -0.110857502    
  0.257999986     -0.109997064    
  0.258500010     -0.109072372    
  0.259000003     -0.108082622    
  0.259499997     -0.107027054    
  0.259999990     -0.105904929    
  0.260500014     -0.104715541    
  0.261000007     -0.103458218    
  0.261500001     -0.102132320    
  0.261999995     -0.100737244    
  0.262499988      -9.92724076E-02
  0.263000011      -9.77372825E-02
  0.263500005      -9.61313769E-02
  0.263999999      -9.44542363E-02
  0.264499992      -9.27054211E-02
  0.264999986      -9.08845738E-02
  0.265500009      -8.89913589E-02
  0.266000003      -8.70254934E-02
  0.266499996      -8.49867165E-02
  0.266999990      -8.28748494E-02
  0.267500013      -8.06897208E-02
  0.268000007      -7.84312412E-02
  0.268500000      -7.60993361E-02
  0.268999994      -7.36940205E-02
  0.269499987      -7.12153241E-02
  0.270000011      -6.86633587E-02
  0.270500004      -6.60382509E-02
  0.270999998      -6.33402318E-02
  0.271499991      -6.05695359E-02
  0.272000015      -5.77264838E-02
  0.272500008      -5.48114367E-02
  0.273000002      -5.18248267E-02
  0.273499995      -4.87671234E-02
  0.273999989      -4.56388667E-02
  0.274500012      -4.24406528E-02
  0.275000006      -3.91731337E-02
  0.275500000      -3.58370170E-02
  0.275999993      -3.24330777E-02
  0.276499987      -2.89621428E-02
  0.277000010      -2.54251026E-02
  0.277500004      -2.18229108E-02
  0.277999997      -1.81565769E-02
  0.278499991      -1.44271674E-02
  0.279000014      -1.06358165E-02
  0.279500008      -6.78372011E-03
  0.280000001      -2.87212851E-03
  0.280499995       1.09764654E-03
  0.280999988       5.12422668E-03
  0.281500012       9.20618046E-03
  0.282000005       1.33420127E-02
  0.282499999       1.75301675E-02
  0.282999992       2.17690337E-02
  0.283499986       2.60569397E-02
  0.284000009       3.03921532E-02
  0.284500003       3.47728878E-02
  0.284999996       3.91972922E-02
  0.285499990       4.36634645E-02
  0.286000013       4.81694527E-02
  0.286500007       5.27132452E-02
  0.287000000       5.72927669E-02
  0.287499994       6.19059093E-02
  0.287999988       6.65504858E-02
  0.288500011       7.12242872E-02
  0.289000005       7.59250373E-02
  0.289499998       8.06504190E-02
  0.289999992       8.53980631E-02
  0.290499985       9.01655480E-02
  0.291000009       9.49504226E-02
  0.291500002       9.97501835E-02
  0.291999996      0.104562297    
  0.292499989      0.109384164    
  0.293000013      0.114213161    
  0.293500006      0.119046643    
  0.294000000      0.123881891    
  0.294499993      0.128716186    
  0.294999987      0.133546785    
  0.295500010      0.138370872    
  0.296000004      0.143185660    
  0.296499997      0.147988304    
  0.296999991      0.152775928    
  0.297500014      0.157545656    
  0.298000008      0.162294582    
  0.298500001      0.167019740    
  0.298999995      0.171718240    
  0.299499989      0.176387101    
  0.300000012      0.181023374    
  0.300500005      0.185624093    
  0.300999999      0.190186262    
  0.301499993      0.194706917    
  0.301999986      0.199183062    
  0.302500010      0.203611732    
  0.303000003      0.207989961    
  0.303499997      0.212314770    
  0.303999990      0.216583177    
  0.304500014      0.220792249    
  0.305000007      0.224939048    
  0.305500001      0.229020670    
  0.305999994      0.233034208    
  0.306499988      0.236976787    
  0.307000011      0.240845546    
  0.307500005      0.244637653    
  0.307999998      0.248350292    
  0.308499992      0.251980782    
  0.308999985      0.255526274    
  0.309500009      0.258984149    
  0.310000002      0.262351751    
  0.310499996      0.265626431    
  0.310999990      0.268805623    
  0.311500013      0.271886826    
  0.312000006      0.274867564    
  0.312500000      0.277745396    
  0.312999994      0.280517966    
  0.313499987      0.283182979    
  0.314000010      0.285738170    
  0.314500004      0.288181335    
  0.314999998      0.290510386    
  0.315499991      0.292723209    
  0.316000015      0.294817865    
  0.316500008      0.296792388    
  0.317000002      0.298644930    
  0.317499995      0.300373703    
  0.317999989      0.301977009    
  0.318500012      0.303453237    
  0.319000006      0.304800779    
  0.319499999      0.306018233    
  0.319999993      0.307104200    
  0.320499986      0.308057308    
  0.321000010      0.308876455    
  0.321500003      0.309560448    
  0.321999997      0.310108244    
  0.322499990      0.310518920    
  0.323000014      0.310791582    
  0.323500007      0.310925484    
  0.324000001      0.310919970    
  0.324499995      0.310774416    
  0.324999988      0.310488373    
  0.325500011      0.310061455    
  0.326000005      0.309493333    
  0.326499999      0.308783859    
  0.326999992      0.307932913    
  0.327499986      0.306940526    
  0.328000009      0.305806786    
  0.328500003      0.304531872    
  0.328999996      0.303116083    
  0.329499990      0.301559806    
  0.330000013      0.299863607    
  0.330500007      0.298027992    
  0.331000000      0.296053678    
  0.331499994      0.293941468    
  0.331999987      0.291692287    
  0.332500011      0.289307028    
  0.333000004      0.286786854    
  0.333499998      0.284132957    
  0.333999991      0.281346560    
  0.334500015      0.278429031    
  0.335000008      0.275381833    
  0.335500002      0.272206545    
  0.335999995      0.268904805    
  0.336499989      0.265478373    
  0.337000012      0.261929035    
  0.337500006      0.258258730    
  0.338000000      0.254469454    
  0.338499993      0.250563294    
  0.338999987      0.246542394    
  0.339500010      0.242409036    
  0.340000004      0.238165528    
  0.340499997      0.233814269    
  0.340999991      0.229357749    
  0.341500014      0.224798515    
  0.342000008      0.220139176    
  0.342500001      0.215382427    
  0.342999995      0.210531041    
  0.343499988      0.205587849    
  0.344000012      0.200555712    
  0.344500005      0.195437580    
  0.344999999      0.190236434    
  0.345499992      0.184955388    
  0.345999986      0.179597527    
  0.346500009      0.174165964    
  0.347000003      0.168663964    
  0.347499996      0.163094744    
  0.347999990      0.157461613    
  0.348500013      0.151767910    
  0.349000007      0.146016955    
  0.349500000      0.140212193    
  0.349999994      0.134357020    
  0.350499988      0.128454894    
  0.351000011      0.122509308    
  0.351500005      0.116523750    
  0.351999998      0.110501729    
  0.352499992      0.104446791    
  0.352999985       9.83624756E-02
  0.353500009       9.22523364E-02
  0.354000002       8.61199349E-02
  0.354499996       7.99688324E-02
  0.354999989       7.38025904E-02
  0.355500013       6.76247701E-02
  0.356000006       6.14389293E-02
  0.356500000       5.52486144E-02
  0.356999993       4.90573533E-02
  0.357499987       4.28686813E-02
  0.358000010       3.66860963E-02
  0.358500004       3.05130873E-02
  0.358999997       2.43531130E-02
  0.359499991       1.82096176E-02
  0.360000014       1.20860077E-02
  0.360500008       5.98566514E-03
  0.361000001      -8.80628650E-05
  0.361499995      -6.13186369E-03
  0.361999989      -1.21424571E-02
  0.362500012      -1.81166176E-02
  0.363000005      -2.40511503E-02
  0.363499999      -2.99429111E-02
  0.363999993      -3.57888080E-02
  0.364499986      -4.15857807E-02
  0.365000010      -4.73308451E-02
  0.365500003      -5.30210584E-02
  0.365999997      -5.86535446E-02
  0.366499990      -6.42254725E-02
  0.367000014      -6.97340667E-02
  0.367500007      -7.51766562E-02
  0.368000001      -8.05505738E-02
  0.368499994      -8.58532637E-02
  0.368999988      -9.10822153E-02
  0.369500011      -9.62350070E-02
  0.370000005     -0.101309255    
  0.370499998     -0.106302686    
  0.370999992     -0.111213088    
  0.371499985     -0.116038278    
  0.372000009     -0.120776214    
  0.372500002     -0.125424907    
  0.372999996     -0.129982427    
  0.373499990     -0.134446934    
  0.374000013     -0.138816699    
  0.374500006     -0.143090010    
  0.375000000     -0.147265285    
  0.375499994     -0.151341006    
  0.375999987     -0.155315712    
  0.376500010     -0.159188062    
  0.377000004     -0.162956804    
  0.377499998     -0.166620731    
  0.377999991     -0.170178726    
  0.378500015     -0.173629776    
  0.379000008     -0.176972911    
  0.379500002     -0.180207297    
  0.379999995     -0.183332145    
  0.380499989     -0.186346754    
  0.381000012     -0.189250529    
  0.381500006     -0.192042902    
  0.381999999     -0.194723427    
  0.382499993     -0.197291747    
  0.382999986     -0.199747548    
  0.383500010     -0.202090621    
  0.384000003     -0.204320818    
  0.384499997     -0.206438109    
  0.384999990     -0.208442464    
  0.385500014     -0.210334018    
  0.386000007     -0.212112889    
  0.386500001     -0.213779315    
  0.386999995     -0.215333626    
  0.387499988     -0.216776192    
  0.388000011     -0.218107477    
  0.388500005     -0.219327956    
  0.388999999     -0.220438242    
  0.389499992     -0.221438989    
  0.389999986     -0.222330883    
  0.390500009     -0.223114684    
  0.391000003     -0.223791257    
  0.391499996     -0.224361479    
  0.391999990     -0.224826276    
  0.392500013     -0.225186676    
  0.393000007     -0.225443706    
  0.393500000     -0.225598529    
  0.393999994     -0.225652248    
  0.394499987     -0.225606099    
  0.395000011     -0.225461334    
  0.395500004     -0.225219250    
  0.395999998     -0.224881187    
  0.396499991     -0.224448562    
  0.397000015     -0.223922744    
  0.397500008     -0.223305225    
  0.398000002     -0.222597480    
  0.398499995     -0.221801072    
  0.398999989     -0.220917538    
  0.399500012     -0.219948471    
  0.400000006     -0.218895495    
  0.400500000     -0.217760250    
  0.400999993     -0.216544405    
  0.401499987     -0.215249673    
  0.402000010     -0.213877738    
  0.402500004     -0.212430343    
  0.402999997     -0.210909232    
  0.403499991     -0.209316194    
  0.404000014     -0.207652971    
  0.404500008     -0.205921382    
  0.405000001     -0.204123229    
  0.405499995     -0.202260301    
  0.405999988     -0.200334430    
  0.406500012     -0.198347434    
  0.407000005     -0.196301118    
  0.407499999     -0.194197327    
  0.407999992     -0.192037866    
  0.408499986     -0.189824581    
  0.409000009     -0.187559277    
  0.409500003     -0.185243785    
  0.409999996     -0.182879895    
  0.410499990     -0.180469438    
  0.411000013     -0.178014174    
  0.411500007     -0.175515920    
  0.412000000     -0.172976449    
  0.412499994     -0.170397490    
  0.412999988     -0.167780817    
  0.413500011     -0.165128186    
  0.414000005     -0.162441269    
  0.414499998     -0.159721777    
  0.414999992     -0.156971425    
  0.415499985     -0.154191837    
  0.416000009     -0.151384696    
  0.416500002     -0.148551598    
  0.416999996     -0.145694181    
  0.417499989     -0.142813995    
  0.418000013     -0.139912635    
  0.418500006     -0.136991605    
  0.419000000     -0.134052441    
  0.419499993     -0.131096616    
  0.419999987     -0.128125623    
  0.420500010     -0.125140876    
  0.421000004     -0.122143798    
  0.421499997     -0.119135775    
  0.421999991     -0.116118163    
  0.422500014     -0.113092303    
  0.423000008     -0.110059500    
  0.423500001     -0.107021034    
  0.423999995     -0.103978150    
  0.424499989     -0.100932077    
  0.425000012      -9.78840142E-02
  0.425500005      -9.48351249E-02
  0.425999999      -9.17865485E-02
  0.426499993      -8.87394100E-02
  0.426999986      -8.56947824E-02
  0.427500010      -8.26537311E-02
  0.428000003      -7.96172768E-02