   0.00000000       0.00000000    
   5.00000024E-04   0.00000000    
   1.00000005E-03   0.00000000    
   1.50000001E-03   0.00000000    
   2.00000009E-03   0.00000000    
   2.49999994E-03   0.00000000    
   3.00000003E-03   0.00000000    
   3.50000011E-03   0.00000000    
   4.00000019E-03   0.00000000    
   4.49999981E-03   0.00000000    
   4.99999989E-03  -3.09775102E-38
   5.49999997E-03  -3.46254640E-37
   6.00000005E-03  -2.85227545E-36
   6.50000013E-03  -1.82766484E-35
   7.00000022E-03  -9.68079061E-35
   7.49999983E-03  -4.40794724E-34
   8.00000038E-03  -1.77159856E-33
   8.50000046E-03  -6.40819203E-33
   8.99999961E-03  -2.11721285E-32
   9.49999969E-03  -6.46333461E-32
   9.99999978E-03  -1.83993795E-31
   1.04999999E-02  -4.92093627E-31
   1.09999999E-02  -1.24413353E-30
   1.15000000E-02  -2.98880423E-30
   1.20000001E-02  -6.85215405E-30
   1.25000002E-02  -1.50474306E-29
   1.30000003E-02  -3.17525542E-29
   1.35000004E-02  -6.45594467E-29
   1.40000004E-02  -1.26772894E-28
   1.44999996E-02  -2.40912579E-28
   1.49999997E-02  -4.43830989E-28
   1.54999997E-02  -7.93871693E-28
   1.60000008E-02  -1.38040981E-27
   1.64999999E-02  -2.33586644E-27
   1.70000009E-02  -3.84979760E-27
   1.75000001E-02  -6.18380437E-27
   1.79999992E-02  -9.68469588E-27
   1.85000002E-02  -1.47914470E-26
   1.89999994E-02  -2.20289639E-26
   1.95000004E-02  -3.19784705E-26
   1.99999996E-02  -4.52106046E-26
   2.05000006E-02  -6.21632501E-26
   2.09999997E-02  -8.29421729E-26
   2.15000007E-02  -1.07019644E-25
   2.19999999E-02  -1.32805214E-25
   2.25000009E-02  -1.57064536E-25
   2.30000000E-02  -1.74169567E-25
   2.34999992E-02  -1.75177374E-25
   2.40000002E-02  -1.46755677E-25
   2.44999994E-02  -7.00073686E-26
   2.50000004E-02   8.07124391E-26
   2.54999995E-02   3.38834371E-25
   2.60000005E-02   7.46253246E-25
   2.64999997E-02   1.35335616E-24
   2.70000007E-02   2.21803626E-24
   2.74999999E-02   3.40325165E-24
   2.80000009E-02   4.97264151E-24
   2.85000000E-02   6.98368068E-24
   2.89999992E-02   9.47788925E-24
   2.95000002E-02   1.24676563E-23
   2.99999993E-02   1.59194986E-23
   3.05000003E-02   1.97337105E-23
   3.09999995E-02   2.37209070E-23
   3.15000005E-02   2.75763179E-23
   3.20000015E-02   3.08534449E-23
   3.24999988E-02   3.29392721E-23
   3.29999998E-02   3.30343014E-23
   3.35000008E-02   3.01411982E-23
   3.40000018E-02   2.30667299E-23
   3.44999991E-02   1.04425849E-23
   3.50000001E-02  -9.22940438E-24
   3.55000012E-02  -3.75017753E-23
   3.59999985E-02  -7.58703447E-23
   3.64999995E-02  -1.25623385E-22
   3.70000005E-02  -1.87648716E-22
   3.75000015E-02  -2.62199593E-22
   3.79999988E-02  -3.48622878E-22
   3.84999998E-02  -4.45058914E-22
   3.90000008E-02  -5.48126861E-22
   3.95000018E-02  -6.52615766E-22
   3.99999991E-02  -7.51206971E-22
   4.05000001E-02  -8.34262539E-22
   4.10000011E-02  -8.89714740E-22
   4.14999984E-02  -9.03101596E-22
   4.19999994E-02  -8.57791748E-22
   4.25000004E-02  -7.35444546E-22
   4.30000015E-02  -5.16744333E-22
   4.34999987E-02  -1.82442689E-22
   4.39999998E-02   2.85273434E-22
   4.45000008E-02   9.01081102E-22
   4.50000018E-02   1.67451658E-21
   4.54999991E-02   2.60770627E-21
   4.60000001E-02   3.69292038E-21
   4.65000011E-02   4.91006374E-21
   4.69999984E-02   6.22425219E-21
   4.74999994E-02   7.58366133E-21
   4.80000004E-02   8.91787134E-21
   4.85000014E-02   1.01369393E-20
   4.89999987E-02   1.11314648E-20
   4.94999997E-02   1.17739135E-20
   5.00000007E-02   1.19214029E-20
   5.05000018E-02   1.14202244E-20
   5.09999990E-02   1.01121796E-20
   5.15000001E-02   7.84286128E-21
   5.20000011E-02   4.47180059E-21
   5.24999984E-02  -1.15658116E-22
   5.29999994E-02  -5.99503269E-21
   5.35000004E-02  -1.31884223E-20
   5.40000014E-02  -2.16498547E-20
   5.44999987E-02  -3.12510839E-20
   5.49999997E-02  -4.17686854E-20
   5.55000007E-02  -5.28735560E-20
   5.60000017E-02  -6.41239717E-20
   5.64999990E-02  -7.49632366E-20
   5.70000000E-02  -8.47232505E-20
   5.75000010E-02  -9.26348970E-20
   5.79999983E-02  -9.78461995E-20
   5.84999993E-02  -9.94488167E-20
   5.90000004E-02  -9.65132173E-20
   5.95000014E-02  -8.81322233E-20
   5.99999987E-02  -7.34725020E-20
   6.04999997E-02  -5.18327075E-20
   6.10000007E-02  -2.27063534E-20
   6.15000017E-02   1.41525821E-20
   6.19999990E-02   5.86647218E-20
   6.25000000E-02   1.10363911E-19
   6.30000010E-02   1.68343649E-19
   6.35000020E-02   2.31215567E-19
   6.40000030E-02   2.97083184E-19
   6.44999966E-02   3.63536315E-19
   6.49999976E-02   4.27669179E-19
   6.54999986E-02   4.86125619E-19
   6.59999996E-02   5.35173138E-19
   6.65000007E-02   5.70808234E-19
   6.70000017E-02   5.88892057E-19
   6.75000027E-02   5.85315069E-19
   6.80000037E-02   5.56187093E-19
   6.84999973E-02   4.98049169E-19
   6.89999983E-02   4.08098215E-19
   6.94999993E-02   2.84419281E-19
   7.00000003E-02   1.26212316E-19
   7.05000013E-02  -6.59947117E-20
   7.10000023E-02  -2.90160561E-19
   7.15000033E-02  -5.42582816E-19
   7.19999969E-02  -8.17801677E-19
   7.24999979E-02  -1.10856554E-18
   7.29999989E-02  -1.40586821E-18
   7.34999999E-02  -1.69906465E-18
   7.40000010E-02  -1.97607369E-18
   7.45000020E-02  -2.22366601E-18
   7.50000030E-02  -2.42783507E-18
   7.54999965E-02  -2.57425245E-18
   7.59999976E-02  -2.64878949E-18
   7.64999986E-02  -2.63809487E-18
   7.69999996E-02  -2.53021294E-18
   7.75000006E-02  -2.31521732E-18
   7.80000016E-02  -1.98583731E-18
   7.85000026E-02  -1.53805312E-18
   7.90000036E-02  -9.71628164E-19
   7.94999972E-02  -2.90554816E-19
   7.99999982E-02   4.96615717E-19
   8.04999992E-02   1.37657878E-18
   8.10000002E-02   2.33124436E-18
   8.15000013E-02   3.33787478E-18
   8.20000023E-02   4.36940581E-18
   8.25000033E-02   5.39495509E-18
   8.29999968E-02   6.38051101E-18
   8.34999979E-02   7.28978806E-18
   8.39999989E-02   8.08523058E-18
   8.44999999E-02   8.72914271E-18
   8.50000009E-02   9.18489027E-18
   8.55000019E-02   9.41817506E-18
   8.60000029E-02   9.39829460E-18
   8.64999965E-02   9.09936228E-18
   8.69999975E-02   8.50146207E-18
   8.74999985E-02   7.59164694E-18
   8.79999995E-02   6.36478879E-18
   8.85000005E-02   4.82421742E-18
   8.90000015E-02   2.98212363E-18
   8.95000026E-02   8.59730066E-19
   9.00000036E-02  -1.51281501E-18
   9.04999971E-02  -4.09677701E-18
   9.09999982E-02  -6.84542994E-18
   9.14999992E-02  -9.70486262E-18
   9.20000002E-02  -1.26149775E-17
   9.25000012E-02  -1.55106258E-17
   9.30000022E-02  -1.83228546E-17
   9.35000032E-02  -2.09802104E-17
   9.39999968E-02  -2.34100551E-17
   9.44999978E-02  -2.55398433E-17
   9.49999988E-02  -2.72983466E-17
   9.54999998E-02  -2.86167732E-17
   9.60000008E-02  -2.94297726E-17
   9.65000018E-02  -2.96763552E-17
   9.70000029E-02  -2.93006861E-17
   9.74999964E-02  -2.82527906E-17
   9.79999974E-02  -2.64892614E-17
   9.84999985E-02  -2.39739408E-17
   9.89999995E-02  -2.06786948E-17
   9.95000005E-02  -1.65842864E-17
  0.100000001      -1.16814396E-17
  0.100500003      -5.97216048E-18
  0.101000004       5.28707946E-19
  0.101499997       7.79161206E-18
  0.101999998       1.57701305E-17
  0.102499999       2.43985888E-17
  0.103000000       3.35894621E-17
  0.103500001       4.32307154E-17
  0.104000002       5.31832069E-17
  0.104500003       6.32783441E-17
  0.104999997       7.33161676E-17
  0.105499998       8.30641272E-17
  0.105999999       9.22568434E-17
  0.106500000       1.00596942E-16
  0.107000001       1.07757540E-16
  0.107500002       1.13386160E-16
  0.108000003       1.17110775E-16
  0.108499996       1.18547634E-16
  0.108999997       1.17311377E-16
  0.109499998       1.13027044E-16
  0.109999999       1.05344158E-16
  0.110500000       9.39525967E-17
  0.111000001       7.85996282E-17
  0.111500002       5.91082024E-17
  0.112000003       3.53954158E-17
  0.112499997       7.49072015E-18
  0.112999998      -2.44468565E-17
  0.113499999      -6.01134981E-17
  0.114000000      -9.90480492E-17
  0.114500001      -1.40623325E-16
  0.115000002      -1.84041810E-16
  0.115500003      -2.28336948E-16
  0.115999997      -2.72380279E-16
  0.116499998      -3.14895642E-16
  0.116999999      -3.54480059E-16
  0.117500000      -3.89632165E-16
  0.118000001      -4.18787462E-16
  0.118500002      -4.40360888E-16
  0.119000003      -4.52794644E-16
  0.119499996      -4.54612112E-16
  0.119999997      -4.44474663E-16
  0.120499998      -4.21241317E-16
  0.120999999      -3.84028380E-16
  0.121500000      -3.32267705E-16
  0.122000001      -2.65760743E-16
  0.122500002      -1.84726438E-16
  0.123000003      -8.98408142E-17
  0.123499997       1.77348417E-17
  0.123999998       1.36338092E-16
  0.124499999       2.63804812E-16
  0.125000000       3.97484716E-16
  0.125499994       5.34274237E-16
  0.126000002       6.70667294E-16
  0.126499996       8.02824233E-16
  0.127000004       9.26657538E-16
  0.127499998       1.03793448E-15
  0.128000006       1.13239284E-15
  0.128500000       1.20586776E-15
  0.128999993       1.25442742E-15
  0.129500002       1.27451354E-15
  0.129999995       1.26308007E-15
  0.130500004       1.21772929E-15
  0.130999997       1.13683691E-15
  0.131500006       1.01966472E-15
  0.131999999       8.66452607E-16
  0.132499993       6.78488637E-16
  0.133000001       4.58150645E-16
  0.133499995       2.08917752E-16
  0.134000003      -6.46514771E-17
  0.134499997      -3.56976133E-16
  0.135000005      -6.61545543E-16
  0.135499999      -9.71045241E-16
  0.136000007      -1.27751881E-15
  0.136500001      -1.57255828E-15
  0.136999995      -1.84752052E-15
  0.137500003      -2.09376486E-15
  0.137999997      -2.30290598E-15
  0.138500005      -2.46707155E-15
  0.138999999      -2.57916387E-15
  0.139500007      -2.63310949E-15
  0.140000001      -2.62409473E-15
  0.140499994      -2.54877296E-15
  0.141000003      -2.40544397E-15
  0.141499996      -2.19418887E-15
  0.142000005      -1.91696134E-15
  0.142499998      -1.57762618E-15
  0.143000007      -1.18194512E-15
  0.143500000      -7.37503117E-16
  0.143999994      -2.53579933E-16
  0.144500002       2.59038345E-16
  0.144999996       7.88293648E-16
  0.145500004       1.32114376E-15
  0.145999998       1.84388718E-15
  0.146500006       2.34252340E-15
  0.147000000       2.80312997E-15
  0.147499993       3.21226149E-15
  0.148000002       3.55733636E-15
  0.148499995       3.82702360E-15
  0.149000004       4.01160013E-15
  0.149499997       4.10327535E-15
  0.150000006       4.09646987E-15
  0.150500000       3.98804245E-15
  0.150999993       3.77745058E-15
  0.151500002       3.46684233E-15
  0.151999995       3.06107882E-15
  0.152500004       2.56767492E-15
  0.152999997       1.99667011E-15
  0.153500006       1.36042322E-15
  0.153999999       6.73338889E-16
  0.154499993      -4.84642904E-17
  0.155000001      -7.87545029E-16
  0.155499995      -1.52556468E-15
  0.156000003      -2.24375089E-15
  0.156499997      -2.92337434E-15
  0.157000005      -3.54623345E-15
  0.157499999      -4.09512436E-15
  0.158000007      -4.55430473E-15
  0.158500001      -4.90990398E-15
  0.158999994      -5.15029998E-15
  0.159500003      -5.26644302E-15
  0.159999996      -5.25210741E-15
  0.160500005      -5.10408501E-15
  0.160999998      -4.82229833E-15
  0.161500007      -4.40985046E-15
  0.162000000      -3.87297980E-15
  0.162499994      -3.22096475E-15
  0.163000003      -2.46595961E-15
  0.163499996      -1.62275313E-15
  0.164000005      -7.08488268E-16
  0.164499998       2.57661123E-16
  0.165000007       1.25487232E-15
  0.165500000       2.26104963E-15
  0.165999994       3.25325047E-15
  0.166500002       4.20810246E-15
  0.166999996       5.10223255E-15
  0.167500004       5.91267664E-15
  0.167999998       6.61730726E-15
  0.168500006       7.19522640E-15
  0.169000000       7.62714121E-15
  0.169499993       7.89574552E-15
  0.170000002       7.98605194E-15
  0.170499995       7.88572088E-15
  0.171000004       7.58538248E-15
  0.171499997       7.07892624E-15
  0.172000006       6.36376531E-15
  0.172499999       5.44111011E-15
  0.172999993       4.31619741E-15
  0.173500001       2.99851252E-15
  0.173999995       1.50196306E-15
  0.174500003      -1.54958272E-16
  0.174999997      -1.94907872E-15
  0.175500005      -3.85249177E-15
  0.175999999      -5.83259688E-15
  0.176499993      -7.85217923E-15
  0.177000001      -9.86965755E-15
  0.177499995      -1.18393708E-14
  0.178000003      -1.37120734E-14
  0.178499997      -1.54355204E-14
  0.179000005      -1.69552296E-14
  0.179499999      -1.82154130E-14
  0.180000007      -1.91600699E-14
  0.180500001      -1.97342498E-14
  0.180999994      -1.98854452E-14
  0.181500003      -1.95651905E-14
  0.181999996      -1.87306869E-14
  0.182500005      -1.73466401E-14
  0.182999998      -1.53869718E-14
  0.183500007      -1.28366615E-14
  0.184000000      -9.69357126E-15
  0.184499994      -5.96994920E-15
  0.185000002      -1.69399601E-15
  0.185499996       3.08898262E-15
  0.186000004       8.31568159E-15
  0.186499998       1.39042999E-14
  0.187000006       1.97544617E-14
  0.187500000       2.57476772E-14
  0.187999994       3.17483805E-14
  0.188500002       3.76055083E-14
  0.188999996       4.31547227E-14
  0.189500004       4.82212774E-14
  0.189999998       5.26234702E-14
  0.190500006       5.61766887E-14
  0.191000000       5.86979602E-14
  0.191499993       6.00110104E-14
  0.192000002       5.99516503E-14
  0.192499995       5.83733230E-14
  0.193000004       5.51530020E-14
  0.193499997       5.01966463E-14
  0.194000006       4.34449467E-14
  0.194499999       3.48782689E-14
  0.194999993       2.45212752E-14
  0.195500001       1.24466130E-14
  0.195999995      -1.22213355E-15
  0.196500003      -1.63083776E-14
  0.196999997      -3.25826504E-14
  0.197500005      -4.97625792E-14
  0.197999999      -6.75155935E-14
  0.198500007      -8.54625954E-14
  0.199000001      -1.03183067E-13
  0.199499995      -1.20222314E-13
  0.200000003      -1.36099343E-13
  0.200499997      -1.50316879E-13
  0.201000005      -1.62372028E-13
  0.201499999      -1.71768659E-13
  0.202000007      -1.78029791E-13
  0.202500001      -1.80711200E-13
  0.202999994      -1.79414968E-13
  0.203500003      -1.73802948E-13
  0.203999996      -1.63610038E-13
  0.204500005      -1.48655990E-13
  0.204999998      -1.28856940E-13
  0.205500007      -1.04234668E-13
  0.206000000      -7.49243400E-14
  0.206499994      -4.11799230E-14
  0.207000002      -3.37717415E-15
  0.207499996       3.79861141E-14
  0.208000004       8.22930388E-14
  0.208499998       1.28812867E-13
  0.209000006       1.76709924E-13
  0.209500000       2.25056248E-13
  0.209999993       2.72844301E-13
  0.210500002       3.19006567E-13
  0.210999995       3.62434339E-13
  0.211500004       4.02000238E-13
  0.211999997       4.36582221E-13
  0.212500006       4.65087766E-13
  0.213000000       4.86480593E-13
  0.213499993       4.99806251E-13
  0.214000002       5.04218195E-13
  0.214499995       4.99000797E-13
  0.215000004       4.83595152E-13
  0.215499997       4.57615987E-13
  0.216000006       4.20872105E-13
  0.216499999       3.73379116E-13
  0.216999993       3.15372132E-13
  0.217500001       2.47307518E-13
  0.217999995       1.69869734E-13
  0.218500003       8.39639840E-14
  0.218999997      -9.28821432E-15
  0.219500005      -1.08566097E-13
  0.219999999      -2.12364035E-13
  0.220500007      -3.19016623E-13
  0.221000001      -4.26722297E-13
  0.221499994      -5.33577577E-13
  0.222000003      -6.37608401E-13
  0.222499996      -7.36806720E-13
  0.223000005      -8.29169795E-13
  0.223499998      -9.12739177E-13
  0.224000007      -9.85640280E-13
  0.224500000      -1.04612293E-12
  0.224999994      -1.09259758E-12
  0.225500003      -1.12367440E-12
  0.225999996      -1.13818969E-12
  0.226500005      -1.13524207E-12
  0.226999998      -1.11421343E-12
  0.227500007      -1.07478577E-12
  0.228000000      -1.01696180E-12
  0.228499994      -9.41065585E-13
  0.229000002      -8.47746840E-13
  0.229499996      -7.37979393E-13
  0.230000004      -6.13042657E-13
  0.230499998      -4.74509592E-13
  0.231000006      -3.24218950E-13
  0.231500000      -1.64249067E-13
  0.231999993       3.11615629E-15
  0.232500002       1.75434713E-13
  0.232999995       3.50134987E-13
  0.233500004       5.24573820E-13
  0.233999997       6.96080671E-13
  0.234500006       8.61999816E-13
  0.234999999       1.01975167E-12
  0.235499993       1.16687378E-12
  0.236000001       1.30106971E-12
  0.236499995       1.42024532E-12
  0.237000003       1.52255780E-12
  0.237499997       1.60644740E-12
  0.238000005       1.67066903E-12
  0.238499999       1.71430947E-12
  0.238999993       1.73681382E-12
  0.239500001       1.73799527E-12
  0.239999995       1.71803782E-12
  0.240500003       1.67748964E-12
  0.240999997       1.61725646E-12
  0.241500005       1.53858111E-12
  0.241999999       1.44302365E-12
  0.242500007       1.33242625E-12
  0.243000001       1.20887426E-12
  0.243499994       1.07466011E-12
  0.244000003       9.32232156E-13
  0.244499996       7.84145914E-13
  0.245000005       6.33015179E-13
  0.245499998       4.81445558E-13
  0.246000007       3.31988316E-13
  0.246500000       1.87092149E-13
  0.246999994       4.90263144E-14
  0.247500002      -8.01583124E-14
  0.247999996      -1.98672296E-13
  0.248500004      -3.05030876E-13
  0.248999998      -3.98099495E-13
  0.249500006      -4.77125446E-13
  0.250000000      -5.41758695E-13
  0.250499994      -5.92067411E-13
  0.250999987      -6.28542682E-13
  0.251500010      -6.52125868E-13
  0.252000004      -6.64163115E-13
  0.252499998      -6.66395866E-13
  0.252999991      -6.60938914E-13
  0.253500015      -6.50256867E-13
  0.254000008      -6.37082834E-13
  0.254500002      -6.24372678E-13
  0.254999995      -6.15268632E-13
  0.255499989      -6.13026719E-13
  0.256000012      -6.20889299E-13
  0.256500006      -6.42089626E-13
  0.256999999      -6.79669970E-13
  0.257499993      -7.36483791E-13
  0.257999986      -8.15070992E-13
  0.258500010      -9.17571032E-13
  0.259000003      -1.04564610E-12
  0.259499997      -1.20041542E-12
  0.259999990      -1.38237121E-12
  0.260500014      -1.59133102E-12
  0.261000007      -1.82636892E-12
  0.261500001      -2.08579421E-12
  0.261999995      -2.36712147E-12
  0.262499988      -2.66704779E-12
  0.263000011      -2.98146924E-12
  0.263500005      -3.30550843E-12
  0.263999999      -3.63350886E-12
  0.264499992      -3.95917587E-12
  0.264999986      -4.27559810E-12
  0.265500009      -4.57529500E-12
  0.266000003      -4.85041738E-12
  0.266499996      -5.09282503E-12
  0.266999990      -5.29419607E-12
  0.267500013      -5.44623634E-12
  0.268000007      -5.54079655E-12
  0.268500000      -5.57007305E-12
  0.268999994      -5.52674486E-12
  0.269499987      -5.40410858E-12
  0.270000011      -5.19636200E-12
  0.270500004      -4.89870210E-12
  0.270999998      -4.50743783E-12
  0.271499991      -4.02020301E-12
  0.272000015      -3.43608930E-12
  0.272500008      -2.75567806E-12
  0.273000002      -1.98115244E-12
  0.273499995      -1.11642303E-12
  0.273999989      -1.67074186E-13
  0.274500012       8.59672576E-13
  0.275000006       1.95483148E-12
  0.275500000       3.10792538E-12
  0.275999993       4.30688471E-12
  0.276499987       5.53832240E-12
  0.277000010       6.78765941E-12
  0.277500004       8.03930533E-12
  0.277999997       9.27685533E-12
  0.278499991       1.04834180E-11
  0.279000014       1.16418012E-11
  0.279500008       1.27348184E-11
  0.280000001       1.37455975E-11
  0.280499995       1.46578843E-11
  0.280999988       1.54562890E-11
  0.281500012       1.61266590E-11
  0.282000005       1.66562771E-11
  0.282499999       1.70341640E-11
  0.282999992       1.72512785E-11
  0.283499986       1.73008465E-11
  0.284000009       1.71783178E-11
  0.284500003       1.68816766E-11
  0.284999996       1.64115232E-11
  0.285499990       1.57709661E-11
  0.286000013       1.49658445E-11
  0.286500007       1.40043272E-11
  0.287000000       1.28972536E-11
  0.287499994       1.16575759E-11
  0.287999988       1.03004280E-11
  0.288500011       8.84268960E-12
  0.289000005       7.30273307E-12
  0.289499998       5.70016733E-12
  0.289999992       4.05550983E-12
  0.290499985       2.38960631E-12
  0.291000009       7.23302928E-13
  0.291500002      -9.22591430E-13
  0.291999996      -2.52835903E-12
  0.292499989      -4.07526400E-12
  0.293000013      -5.54624402E-12
  0.293500006      -6.92591123E-12
  0.294000000      -8.20131376E-12
  0.294499993      -9.36179259E-12
  0.294999987      -1.03995987E-11
  0.295500010      -1.13096399E-11
  0.296000004      -1.20900226E-11
  0.296499997      -1.27418397E-11
  0.296999991      -1.32692737E-11
  0.297500014      -1.36794916E-11
  0.298000008      -1.39822806E-11
  0.298500001      -1.41903000E-11
  0.298999995      -1.43183208E-11
  0.299499989      -1.43833313E-11
  0.300000012      -1.44037048E-11
  0.300500005      -1.43992110E-11
  0.300999999      -1.43901705E-11
  0.301499993      -1.43970469E-11
  0.301999986      -1.44400290E-11
  0.302500010      -1.45385700E-11
  0.303000003      -1.47107812E-11
  0.303499997      -1.49726741E-11
  0.303999990      -1.53381006E-11
  0.304500014      -1.58180778E-11
  0.305000007      -1.64203824E-11
  0.305500001      -1.71491415E-11
  0.305999994      -1.80047574E-11
  0.306499988      -1.89834121E-11
  0.307000011      -2.00772784E-11
  0.307500005      -2.12741734E-11
  0.307999998      -2.25578688E-11
  0.308499992      -2.39078514E-11
  0.308999985      -2.52998143E-11
  0.309500009      -2.67058944E-11
  0.310000002      -2.80951651E-11
  0.310499996      -2.94339414E-11
  0.310999990      -3.06864985E-11
  0.311500013      -3.18149257E-11
  0.312000006      -3.27813159E-11
  0.312500000      -3.35468250E-11
  0.312999994      -3.40737473E-11
  0.313499987      -3.43247687E-11
  0.314000010      -3.42658332E-11
  0.314500004      -3.38646368E-11
  0.314999998      -3.30923657E-11
  0.315499991      -3.19248655E-11
  0.316000015      -3.03423432E-11
  0.316500008      -2.83306885E-11
  0.317000002      -2.58821835E-11
  0.317499995      -2.29946461E-11
  0.317999989      -1.96730254E-11
  0.318500012      -1.59279447E-11
  0.319000006      -1.17787568E-11
  0.319499999      -7.25107387E-12
  0.319999993      -2.37720108E-12
  0.320499986       2.80371754E-12
  0.321000010       8.24613381E-12
  0.321500003       1.38985342E-11
  0.321999997       1.97048211E-11
  0.322499990       2.56030770E-11
  0.323000014       3.15281794E-11
  0.323500007       3.74123198E-11
  0.324000001       4.31849903E-11
  0.324499995       4.87743110E-11
  0.324999988       5.41088979E-11
  0.325500011       5.91175928E-11
  0.326000005       6.37306596E-11
  0.326499999       6.78817419E-11
  0.326999992       7.15090209E-11
  0.327499986       7.45544113E-11
  0.328000009       7.69650801E-11
  0.328500003       7.86957860E-11
  0.328999996       7.97068453E-11
  0.329499990       7.99671440E-11
  0.330000013       7.94546373E-11
  0.330500007       7.81546702E-11
  0.331000000       7.60618651E-11
  0.331499994       7.31799413E-11
  0.331999987       6.95212291E-11
  0.332500011       6.51061427E-11
  0.333000004       5.99627709E-11
  0.333499998       5.41290519E-11
  0.333999991       4.76487218E-11
  0.334500015       4.05697975E-11
  0.335000008       3.29481546E-11
  0.335500002       2.48429576E-11
  0.335999995       1.63160440E-11
  0.336499989       7.43275493E-12
  0.337000012      -1.74404707E-12
  0.337500006      -1.11528790E-11
  0.338000000      -2.07273122E-11
  0.338499993      -3.04105942E-11
  0.338999987      -4.01503344E-11
  0.339500010      -4.98970622E-11
  0.340000004      -5.96095950E-11
  0.340499997      -6.92581686E-11
  0.340999991      -7.88180493E-11
  0.341500014      -8.82759213E-11
  0.342000008      -9.76310560E-11
  0.342500001      -1.06890809E-10
  0.342999995      -1.16076482E-10
  0.343499988      -1.25222221E-10
  0.344000012      -1.34372832E-10
  0.344500005      -1.43583256E-10
  0.344999999      -1.52916402E-10
  0.345499992      -1.62450456E-10
  0.345999986      -1.72277914E-10
  0.346500009      -1.82493826E-10
  0.347000003      -1.93198790E-10
  0.347499996      -2.04504039E-10
  0.347999990      -2.16526547E-10
  0.348500013      -2.29382721E-10
  0.349000007      -2.43192189E-10
  0.349500000      -2.58074145E-10
  0.349999994      -2.74142653E-10
  0.350499988      -2.91514146E-10
  0.351000011      -3.10305059E-10
  0.351500005      -3.30621253E-10
  0.351999998      -3.52554486E-10
  0.352499992      -3.76196130E-10
  0.352999985      -4.01631728E-10
  0.353500009      -4.28922953E-10
  0.354000002      -4.58132698E-10
  0.354499996      -4.89307594E-10
  0.354999989      -5.22476673E-10
  0.355500013      -5.57661972E-10
  0.356000006      -5.94876481E-10
  0.356500000      -6.34117758E-10
  0.356999993      -6.75376532E-10
  0.357499987      -7.18634152E-10
  0.358000010      -7.63854535E-10
  0.358500004      -8.11007372E-10
  0.358999997      -8.60039151E-10
  0.359499991      -9.10903297E-10
  0.360000014      -9.63557900E-10
  0.360500008      -1.01795894E-09
  0.361000001      -1.07404785E-09
  0.361499995      -1.13177812E-09
  0.361999989      -1.19110566E-09
  0.362500012      -1.25200028E-09
  0.363000005      -1.31443612E-09
  0.363499999      -1.37838529E-09
  0.363999993      -1.44385270E-09
  0.364499986      -1.51083346E-09
  0.365000010      -1.57933222E-09
  0.365500003      -1.64938629E-09
  0.365999997      -1.72101433E-09
  0.366499990      -1.79429549E-09
  0.367000014      -1.86929938E-09
  0.367500007      -1.94610572E-09
  0.368000001      -2.02479322E-09
  0.368499994      -2.10545026E-09
  0.368999988      -2.18824492E-09
  0.369500011      -2.27324670E-09
  0.370000005      -2.36064213E-09
  0.370499998      -2.45052401E-09
  0.370999992      -2.54307864E-09
  0.371499985      -2.63842770E-09
  0.372000009      -2.73676592E-09
  0.372500002      -2.83826140E-09
  0.372999996      -2.94305380E-09
  0.373499990      -3.05137604E-09
  0.374000013      -3.16338622E-09
  0.374500006      -3.27921490E-09
  0.375000000      -3.39903883E-09
  0.375499994      -3.52313756E-09
  0.375999987      -3.65158548E-09
  0.376500010      -3.78457843E-09
  0.377000004      -3.92230248E-09
  0.377499998      -4.06503675E-09
  0.377999991      -4.21293089E-09
  0.378500015      -4.36613368E-09
  0.379000008      -4.52488669E-09
  0.379500002      -4.68937689E-09
  0.379999995      -4.85988316E-09
  0.380499989      -5.03657427E-09
  0.381000012      -5.21969090E-09
  0.381500006      -5.40927036E-09
  0.381999999      -5.60563063E-09
  0.382499993      -5.80910609E-09
  0.382999986      -6.01982686E-09
  0.383500010      -6.23803631E-09
  0.384000003      -6.46375131E-09
  0.384499997      -6.69736444E-09
  0.384999990      -6.93898672E-09
  0.385500014      -7.18876736E-09
  0.386000007      -7.44674367E-09
  0.386500001      -7.71302755E-09
  0.386999995      -7.98735744E-09
  0.387499988      -8.27003266E-09
  0.388000011      -8.56131344E-09
  0.388500005      -8.86078944E-09
  0.388999999      -9.16849796E-09
  0.389499992      -9.48432888E-09
  0.389999986      -9.80760895E-09
  0.390500009      -1.01384527E-08
  0.391000003      -1.04763362E-08
  0.391499996      -1.08205525E-08
  0.391999990      -1.11711778E-08
  0.392500013      -1.15276499E-08
  0.393000007      -1.18894139E-08
  0.393500000      -1.22553860E-08
  0.393999994      -1.26253070E-08
  0.394499987      -1.29984326E-08
  0.395000011      -1.33737181E-08
  0.395500004      -1.37498981E-08
  0.395999998      -1.41264493E-08
  0.396499991      -1.45027785E-08
  0.397000015      -1.48776182E-08
  0.397500008      -1.52489541E-08
  0.398000002      -1.56159707E-08
  0.398499995      -1.59775464E-08
  0.398999989      -1.63318230E-08
  0.399500012      -1.66775287E-08
  0.400000006      -1.70134022E-08
  0.400500000      -1.73369052E-08
  0.400999993      -1.76461050E-08
  0.401499987      -1.79404029E-08
  0.402000010      -1.82174151E-08
  0.402500004      -1.84737896E-08
  0.402999997      -1.87066203E-08
  0.403499991      -1.89118108E-08
  0.404000014      -1.90864515E-08
  0.404500008      -1.92277145E-08
  0.405000001      -1.93323206E-08
  0.405499995      -1.93944576E-08
  0.405999988      -1.94086134E-08
  0.406500012      -1.93716598E-08
  0.407000005      -1.92792715E-08
  0.407499999      -1.91242986E-08
  0.407999992      -1.88963121E-08
  0.408499986      -1.85918800E-08
  0.409000009      -1.82057924E-08
  0.409500003      -1.77265704E-08
  0.409999996      -1.71481069E-08
  0.410499990      -1.64636980E-08
  0.411000013      -1.56614188E-08
  0.411500007      -1.47306922E-08
  0.412000000      -1.36621301E-08
  0.412499994      -1.24408306E-08
  0.412999988      -1.10533831E-08
  0.413500011      -9.49084811E-09
  0.414000005      -7.73951481E-09
  0.414499998      -5.78135229E-09
  0.414999992      -3.60369690E-09
  0.415499985      -1.19879839E-09
  0.416000009       1.45450241E-09
  0.416500002       4.37900427E-09
  0.416999996       7.59333396E-09
  0.417499989       1.11174581E-08
  0.418000013       1.49732085E-08
  0.418500006       1.91833092E-08
  0.419000000       2.37675017E-08
  0.419499993       2.87530586E-08
  0.419999987       3.41615092E-08
  0.420500010       4.00232558E-08
  0.421000004       4.63778171E-08
  0.421499997       5.32523927E-08
  0.421999991       6.06772517E-08
  0.422500014       6.86926498E-08
  0.423000008       7.73362459E-08
  0.423500001       8.66501750E-08
  0.423999995       9.66834293E-08
  0.424499989       1.07479394E-07
  0.425000012       1.19080546E-07
  0.425500005       1.31528381E-07
  0.425999999       1.44891146E-07
  0.426499993       1.59235015E-07
  0.426999986       1.74607635E-07
  0.427500010       1.91073426E-07
  0.428000003       2.08705671E-07