   0.00000000       0.00000000    
   5.00000024E-04   0.00000000    
   1.00000005E-03   0.00000000    
   1.50000001E-03  -3.03368238E-14
   2.00000009E-03  -1.99171503E-13
   2.49999994E-03  -7.31789520E-13
   3.00000003E-03  -1.97081565E-12
   3.50000011E-03  -4.30896508E-12
   4.00000019E-03  -8.03745872E-12
   4.49999981E-03  -1.31128641E-11
   4.99999989E-03  -1.88701346E-11
   5.49999997E-03  -2.37362959E-11
   6.00000005E-03  -2.50220331E-11
   6.50000013E-03  -1.88829438E-11
   7.00000022E-03  -5.42500615E-13
   7.49999983E-03   3.51482142E-11
   8.00000038E-03   9.27736846E-11
   8.50000046E-03   1.75054832E-10
   8.99999961E-03   2.81268786E-10
   9.49999969E-03   4.05545236E-10
   9.99999978E-03   5.35270661E-10
   1.04999999E-02   6.49894638E-10
   1.09999999E-02   7.20466242E-10
   1.15000000E-02   7.10238590E-10
   1.20000001E-02   5.76632020E-10
   1.25000002E-02   2.74759632E-10
   1.30000003E-02  -2.37416586E-10
   1.35000004E-02  -9.92429805E-10
   1.40000004E-02  -2.00547134E-09
   1.44999996E-02  -3.26597460E-09
   1.49999997E-02  -4.72938311E-09
   1.54999997E-02  -6.31013508E-09
   1.60000008E-02  -7.87696663E-09
   1.64999999E-02  -9.25172117E-09
   1.70000009E-02  -1.02127720E-08
   1.75000001E-02  -1.05039755E-08
   1.79999992E-02  -9.84971127E-09
   1.85000002E-02  -7.97616284E-09
   1.89999994E-02  -4.63833816E-09
   1.95000004E-02   3.48260365E-10
   1.99999996E-02   7.07315806E-09
   2.05000006E-02   1.54960915E-08
   2.09999997E-02   2.54149306E-08
   2.15000007E-02   3.64398574E-08
   2.19999999E-02   4.79774442E-08
   2.25000009E-02   5.92282703E-08
   2.30000000E-02   6.92013629E-08
   2.34999992E-02   7.67477317E-08
   2.40000002E-02   8.06144484E-08
   2.44999994E-02   7.95190616E-08
   2.50000004E-02   7.22428339E-08
   2.54999995E-02   5.77387311E-08
   2.60000005E-02   3.52490268E-08
   2.64999997E-02   4.42528503E-09
   2.70000007E-02  -3.45583508E-08
   2.74999999E-02  -8.09078742E-08
   2.80000009E-02  -1.33138798E-07
   2.85000000E-02  -1.89041984E-07
   2.89999992E-02  -2.45694963E-07
   2.95000002E-02  -2.99526022E-07
   2.99999993E-02  -3.46435371E-07
   3.05000003E-02  -3.81974445E-07
   3.09999995E-02  -4.01580479E-07
   3.15000005E-02  -4.00859079E-07
   3.20000015E-02  -3.75902118E-07
   3.24999988E-02  -3.23626693E-07
   3.29999998E-02  -2.42113231E-07
   3.35000008E-02  -1.30921208E-07
   3.40000018E-02   8.64219540E-09
   3.44999991E-02   1.73325276E-07
   3.50000001E-02   3.57829833E-07
   3.55000012E-02   5.54824169E-07
   3.59999985E-02   7.55085352E-07
   3.64999995E-02   9.47781245E-07
   3.70000005E-02   1.12088878E-06
   3.75000015E-02   1.26174518E-06
   3.79999988E-02   1.35770813E-06
   3.84999998E-02   1.39690474E-06
   3.90000008E-02   1.36902497E-06
   3.95000018E-02   1.26612395E-06
   3.99999991E-02   1.08338133E-06
   4.05000001E-02   8.19763670E-07
   4.10000011E-02   4.78546042E-07
   4.14999984E-02   6.76379202E-08
   4.19999994E-02  -4.00321795E-07
   4.25000004E-02  -9.08133586E-07
   4.30000015E-02  -1.43448597E-06
   4.34999987E-02  -1.95468829E-06
   4.39999998E-02  -2.44166858E-06
   4.45000008E-02  -2.86720956E-06
   4.50000018E-02  -3.20336767E-06
   4.54999991E-02  -3.42401245E-06
   4.60000001E-02  -3.50641221E-06
   4.65000011E-02  -3.43276770E-06
   4.69999984E-02  -3.19161859E-06
   4.74999994E-02  -2.77900790E-06
   4.80000004E-02  -2.19934691E-06
   4.85000014E-02  -1.46587854E-06
   4.89999987E-02  -6.00704084E-07
   4.94999997E-02   3.65676016E-07
   5.00000007E-02   1.39530971E-06
   5.05000018E-02   2.44421790E-06
   5.09999990E-02   3.46424213E-06
   5.15000001E-02   4.40525173E-06
   5.20000011E-02   5.21759921E-06
   5.24999984E-02   5.85471616E-06
   5.29999994E-02   6.27570535E-06
   5.35000004E-02   6.44778902E-06
   5.40000014E-02   6.34846538E-06
   5.44999987E-02   5.96724203E-06
   5.49999997E-02   5.30683292E-06
   5.55000007E-02   4.38369352E-06
   5.60000017E-02   3.22787719E-06
   5.64999990E-02   1.88213880E-06
   5.70000000E-02   4.00327082E-07
   5.75000010E-02  -1.15488820E-06
   5.79999983E-02  -2.71486465E-06
   5.84999993E-02  -4.20827655E-06
   5.90000004E-02  -5.56468331E-06
   5.95000014E-02  -6.71818771E-06
   5.99999987E-02  -7.61099409E-06
   6.04999997E-02  -8.19666275E-06
   6.10000007E-02  -8.44285933E-06
   6.15000017E-02  -8.33344166E-06
   6.19999990E-02  -7.86972669E-06
   6.25000000E-02  -7.07085974E-06
   6.30000010E-02  -5.97320741E-06
   6.35000020E-02  -4.62879825E-06
   6.40000030E-02  -3.10285031E-06
   6.44999966E-02  -1.47050037E-06
   6.49999976E-02   1.87102458E-07
   6.54999986E-02   1.78714754E-06
   6.59999996E-02   3.24971620E-06
   6.65000007E-02   4.50229300E-06
   6.70000017E-02   5.48397156E-06
   6.75000027E-02   6.14910823E-06
   6.80000037E-02   6.47019124E-06
   6.84999973E-02   6.43974909E-06
   6.89999983E-02   6.07113725E-06
   6.94999993E-02   5.39814710E-06
   7.00000003E-02   4.47339562E-06
   7.05000013E-02   3.36557196E-06
   7.10000023E-02   2.15564251E-06
   7.15000033E-02   9.32214334E-07
   7.19999969E-02  -2.13714955E-07
   7.24999979E-02  -1.19433128E-06
   7.29999989E-02  -1.93059691E-06
   7.34999999E-02  -2.35753373E-06
   7.40000010E-02  -2.42888109E-06
   7.45000020E-02  -2.12083637E-06
   7.50000030E-02  -1.43463251E-06
   7.54999965E-02  -3.97738347E-07
   7.59999976E-02   9.36420861E-07
   7.64999986E-02   2.49028426E-06
   7.69999996E-02   4.16547300E-06
   7.75000006E-02   5.84748523E-06
   7.80000016E-02   7.41156327E-06
   7.85000026E-02   8.72945839E-06
   7.90000036E-02   9.67674532E-06
   7.94999972E-02   1.01403257E-05
   7.99999982E-02   1.00257121E-05
   8.04999992E-02   9.26364737E-06
   8.10000002E-02   7.81574636E-06
   8.15000013E-02   5.67871439E-06
   8.20000023E-02   2.88694923E-06
   8.25000033E-02  -4.86764520E-07
   8.29999968E-02  -4.33253626E-06
   8.34999979E-02  -8.50668403E-06
   8.39999989E-02  -1.28369502E-05
   8.44999999E-02  -1.71294760E-05
   8.50000009E-02  -2.11772385E-05
   8.55000019E-02  -2.47695370E-05
   8.60000029E-02  -2.77021427E-05
   8.64999965E-02  -2.97875958E-05
   8.69999975E-02  -3.08650961E-05
   8.74999985E-02  -3.08095878E-05
   8.79999995E-02  -2.95393766E-05
   8.85000005E-02  -2.70220371E-05
   8.90000015E-02  -2.32780985E-05
   8.95000026E-02  -1.83823249E-05
   9.00000036E-02  -1.24624476E-05
   9.04999971E-02  -5.69528083E-06
   9.09999982E-02   1.69967745E-06
   9.14999992E-02   9.46881300E-06
   9.20000002E-02   1.73349690E-05
   9.25000012E-02   2.50094090E-05
   9.30000022E-02   3.22047308E-05
   9.35000032E-02   3.86480206E-05
   9.39999968E-02   4.40938747E-05
   9.44999978E-02   4.83362055E-05
   9.49999988E-02   5.12187544E-05
   9.54999998E-02   5.26433469E-05
   9.60000008E-02   5.25757459E-05
   9.65000018E-02   5.10485552E-05
   9.70000029E-02   4.81610077E-05
   9.74999964E-02   4.40757685E-05
   9.79999974E-02   3.90125788E-05
   9.84999985E-02   3.32391210E-05
   9.89999995E-02   2.70595901E-05
   9.95000005E-02   2.08011588E-05
  0.100000001       1.47994278E-05
  0.100500003       9.38302946E-06
  0.101000004       4.85855435E-06
  0.101499997       1.49623600E-06
  0.101999998      -4.82840790E-07
  0.102499999      -9.17201362E-07
  0.103000000       2.87189238E-07
  0.103500001       3.15218585E-06
  0.104000002       7.62633908E-06
  0.104500003       1.35868422E-05
  0.104999997       2.08453712E-05
  0.105499998       2.91567740E-05
  0.105999999       3.82306680E-05
  0.106500000       4.77450267E-05
  0.107000001       5.73618745E-05
  0.107500002       6.67430068E-05
  0.108000003       7.55669389E-05
  0.108499996       8.35435421E-05
  0.108999997       9.04290573E-05
  0.109499998       9.60372417E-05
  0.109999999       1.00249286E-04
  0.110500000       1.03019534E-04
  0.111000001       1.04378378E-04
  0.111500002       1.04431107E-04
  0.112000003       1.03353959E-04
  0.112499997       1.01386540E-04
  0.112999998       9.88216270E-05
  0.113499999       9.59921890E-05
  0.114000000       9.32575931E-05
  0.114500001       9.09879382E-05
  0.115000002       8.95489429E-05
  0.115500003       8.92867902E-05
  0.115999997       9.05150882E-05
  0.116499998       9.35027638E-05
  0.116999999       9.84645521E-05
  0.117500000       1.05554383E-04
  0.118000001       1.14862291E-04
  0.118500002       1.26414219E-04
  0.119000003       1.40173870E-04
  0.119499996       1.56049064E-04
  0.119999997       1.73898356E-04
  0.120499998       1.93542030E-04
  0.120999999       2.14773856E-04
  0.121500000       2.37372689E-04
  0.122000001       2.61115638E-04
  0.122500002       2.85789458E-04
  0.123000003       3.11202428E-04
  0.123499997       3.37194331E-04
  0.123999998       3.63646075E-04
  0.124499999       3.90483649E-04
  0.125000000       4.17684234E-04
  0.125499994       4.45279031E-04
  0.126000002       4.73347551E-04
  0.126499996       5.02024777E-04
  0.127000004       5.31487574E-04
  0.127499998       5.61956258E-04
  0.128000006       5.93686244E-04
  0.128500000       6.26958616E-04
  0.128999993       6.62075588E-04
  0.129500002       6.99351251E-04
  0.129999995       7.39106385E-04
  0.130500004       7.81657989E-04
  0.130999997       8.27315147E-04
  0.131500006       8.76376405E-04
  0.131999999       9.29118425E-04
  0.132499993       9.85802035E-04
  0.133000001       1.04665966E-03
  0.133499995       1.11190346E-03
  0.134000003       1.18171750E-03
  0.134499997       1.25626067E-03
  0.135000005       1.33567059E-03
  0.135499999       1.42006250E-03
  0.136000007       1.50953454E-03
  0.136500001       1.60416844E-03
  0.136999995       1.70403637E-03
  0.137500003       1.80921401E-03
  0.137999997       1.91976293E-03
  0.138500005       2.03577778E-03
  0.138999999       2.15735403E-03
  0.139500007       2.28461786E-03
  0.140000001       2.41772644E-03
  0.140499994       2.55688839E-03
  0.141000003       2.70236656E-03
  0.141499996       2.85447668E-03
  0.142000005       3.01360944E-03
  0.142499998       3.18023260E-03
  0.143000007       3.35488096E-03
  0.143500000       3.53818876E-03
  0.143999994       3.73086752E-03
  0.144500002       3.93369328E-03
  0.144999996       4.14753379E-03
  0.145500004       4.37332224E-03
  0.145999998       4.61203745E-03
  0.146500006       4.86472389E-03
  0.147000000       5.13244700E-03
  0.147499993       5.41628432E-03
  0.148000002       5.71732316E-03
  0.148499995       6.03663689E-03
  0.149000004       6.37526717E-03
  0.149499997       6.73423707E-03
  0.150000006       7.11450214E-03
  0.150500000       7.51699368E-03
  0.150999993       7.94254988E-03
  0.151500002       8.39198101E-03
  0.151999995       8.86607263E-03
  0.152500004       9.36554745E-03
  0.152999997       9.89111979E-03
  0.153500006       1.04435086E-02
  0.153999999       1.10234600E-02
  0.154499993       1.16317328E-02
  0.155000001       1.22691877E-02
  0.155499995       1.29367514E-02
  0.156000003       1.36354761E-02
  0.156499997       1.43665746E-02
  0.157000005       1.51314223E-02
  0.157499999       1.59314834E-02
  0.158000007       1.67685021E-02
  0.158500001       1.76443383E-02
  0.158999994       1.85610484E-02
  0.159500003       1.95209105E-02
  0.159999996       2.05263272E-02
  0.160500005       2.15798579E-02
  0.160999998       2.26843096E-02
  0.161500007       2.38425415E-02
  0.162000000       2.50575002E-02
  0.162499994       2.63322890E-02
  0.163000003       2.76700538E-02
  0.163499996       2.90739629E-02
  0.164000005       3.05473693E-02
  0.164499998       3.20935324E-02
  0.165000007       3.37158442E-02
  0.165500000       3.54176350E-02
  0.165999994       3.72023210E-02
  0.166500002       3.90733145E-02
  0.166999996       4.10342589E-02
  0.167500004       4.30884846E-02
  0.167999998       4.52398099E-02
  0.168500006       4.74919006E-02
  0.169000000       4.98485006E-02
  0.169499993       5.23136593E-02
  0.170000002       5.48915379E-02
  0.170499995       5.75863160E-02
  0.171000004       6.04024641E-02
  0.171499997       6.33448437E-02
  0.172000006       6.64181188E-02
  0.172499999       6.96275681E-02
  0.172999993       7.29783922E-02
  0.173500001       7.64762759E-02
  0.173999995       8.01268369E-02
  0.174500003       8.39365050E-02
  0.174999997       8.79114717E-02
  0.175500005       9.20582488E-02
  0.175999999       9.63837504E-02
  0.176499993      0.100895189    
  0.177000001      0.105600186    
  0.177499995      0.110506363    
  0.178000003      0.115621574    
  0.178499997      0.120954514    
  0.179000005      0.126513779    
  0.179499999      0.132308021    
  0.180000007      0.138346568    
  0.180500001      0.144638836    
  0.180999994      0.151194692    
  0.181500003      0.158024296    
  0.181999996      0.165137902    
  0.182500005      0.172546208    
  0.182999998      0.180260271    
  0.183500007      0.188290939    
  0.184000000      0.196649775    
  0.184499994      0.205348760    
  0.185000002      0.214399904    
  0.185499996      0.223815396    
  0.186000004      0.233607695    
  0.186499998      0.243789732    
  0.187000006      0.254374266    
  0.187500000      0.265374690    
  0.187999994      0.276804894    
  0.188500002      0.288679630    
  0.188999996      0.301013142    
  0.189500004      0.313820153    
  0.189999998      0.327115953    
  0.190500006      0.340916514    
  0.191000000      0.355236530    
  0.191499993      0.370094001    
  0.192000002      0.385505944    
  0.192499995      0.401489049    
  0.193000004      0.418061852    
  0.193499997      0.435242951    
  0.194000006      0.453052402    
  0.194499999      0.471507818    
  0.194999993      0.490631193    
  0.195500001      0.510441303    
  0.195999995      0.530961394    
  0.196500003      0.552212417    
  0.196999997      0.574214637    
  0.197500005      0.596993148    
  0.197999999      0.620569825    
  0.198500007      0.644967556    
  0.199000001      0.670212865    
  0.199499995      0.696327150    
  0.200000003      0.723336995    
  0.200499997      0.751267135    
  0.201000005      0.780142307    
  0.201499999      0.809987783    
  0.202000007      0.840831876    
  0.202500001      0.872698188    
  0.202999994      0.905616581    
  0.203500003      0.939608872    
  0.203999996      0.974706054    
  0.204500005       1.01093721    
  0.204999998       1.04832709    
  0.205500007       1.08690536    
  0.206000000       1.12669873    
  0.206499994       1.16774142    
  0.207000002       1.21005905    
  0.207499996       1.25368345    
  0.208000004       1.29864120    
  0.208499998       1.34496558    
  0.209000006       1.39268672    
  0.209500000       1.44183517    
  0.209999993       1.49244201    
  0.210500002       1.54453790    
  0.210999995       1.59816015    
  0.211500004       1.65333354    
  0.211999997       1.71009338    
  0.212500006       1.76846409    
  0.213000000       1.82849383    
  0.213499993       1.89020038    
  0.214000002       1.95362544    
  0.214499995       2.01879930    
  0.215000004       2.08575439    
  0.215499997       2.15451717    
  0.216000006       2.22511959    
  0.216499999       2.29759645    
  0.216999993       2.37197781    
  0.217500001       2.44829988    
  0.217999995       2.52658534    
  0.218500003       2.60686564    
  0.218999997       2.68917608    
  0.219500005       2.77353692    
  0.219999999       2.85996437    
  0.220500007       2.94850349    
  0.221000001       3.03918028    
  0.221499994       3.13203025    
  0.222000003       3.22705746    
  0.222499996       3.32428622    
  0.223000005       3.42375183    
  0.223499998       3.52548933    
  0.224000007       3.62948585    
  0.224500000       3.73578525    
  0.224999994       3.84440422    
  0.225500003       3.95535564    
  0.225999996       4.06866074    
  0.226500005       4.18433189    
  0.226999998       4.30237436    
  0.227500007       4.42282009    
  0.228000000       4.54566860    
  0.228499994       4.67093325    
  0.229000002       4.79861736    
  0.229499996       4.92870522    
  0.230000004       5.06122541    
  0.230499998       5.19615459    
  0.231000006       5.33352566    
  0.231500000       5.47330093    
  0.231999993       5.61548662    
  0.232500002       5.76007557    
  0.232999995       5.90704918    
  0.233500004       6.05641031    
  0.233999997       6.20810509    
  0.234500006       6.36211252    
  0.234999999       6.51844501    
  0.235499993       6.67703867    
  0.236000001       6.83786154    
  0.236499995       7.00088692    
  0.237000003       7.16610622    
  0.237499997       7.33340073    
  0.238000005       7.50280857    
  0.238499999       7.67428017    
  0.238999993       7.84771109    
  0.239500001       8.02305794    
  0.239999995       8.20027828    
  0.240500003       8.37928963    
  0.240999997       8.56001759    
  0.241500005       8.74238396    
  0.241999999       8.92636204    
  0.242500007       9.11181927    
  0.243000001       9.29867268    
  0.243499994       9.48684788    
  0.244000003       9.67621422    
  0.244499996       9.86670589    
  0.245000005       10.0581598    
  0.245499998       10.2504520    
  0.246000007       10.4435015    
  0.246500000       10.6372461    
  0.246999994       10.8313751    
  0.247500002       11.0258808    
  0.247999996       11.2206249    
  0.248500004       11.4154005    
  0.248999998       11.6100397    
  0.249500006       11.8044243    
  0.250000000       11.9983797    
  0.250499994       12.1916580    
  0.250999987       12.3841934    
  0.251500010       12.5756903    
  0.252000004       12.7660217    
  0.252499998       12.9549456    
  0.252999991       13.1422596    
  0.253500015       13.3278666    
  0.254000008       13.5114241    
  0.254500002       13.6928091    
  0.254999995       13.8717175    
  0.255499989       14.0479078    
  0.256000012       14.2212687    
  0.256500006       14.3913412    
  0.256999999       14.5580416    
  0.257499993       14.7210102    
  0.257999986       14.8799677    
  0.258500010       15.0347366    
  0.259000003       15.1848984    
  0.259499997       15.3301592    
  0.259999990       15.4703045    
  0.260500014       15.6048765    
  0.261000007       15.7338057    
  0.261500001       15.8566895    
  0.261999995       15.9732399    
  0.262499988       16.0829773    
  0.263000011       16.1855907    
  0.263500005       16.2808723    
  0.263999999       16.3684921    
  0.264499992       16.4478836    
  0.264999986       16.5189114    
  0.265500009       16.5812397    
  0.266000003       16.6343479    
  0.266499996       16.6781216    
  0.266999990       16.7120857    
  0.267500013       16.7358475    
  0.268000007       16.7490425    
  0.268500000       16.7513657    
  0.268999994       16.7422371    
  0.269499987       16.7214432    
  0.270000011       16.6885948    
  0.270500004       16.6431999    
  0.270999998       16.5848923    
  0.271499991       16.5135345    
  0.272000015       16.4284725    
  0.272500008       16.3295555    
  0.273000002       16.2161655    
  0.273499995       16.0879211    
  0.273999989       15.9445848    
  0.274500012       15.7858152    
  0.275000006       15.6111679    
  0.275500000       15.4206724    
  0.275999993       15.2133017    
  0.276499987       14.9888391    
  0.277000010       14.7471695    
  0.277500004       14.4877443    
  0.277999997       14.2101307    
  0.278499991       13.9141006    
  0.279000014       13.5992746    
  0.279500008       13.2654190    
  0.280000001       12.9121370    
  0.280499995       12.5393085    
  0.280999988       12.1464911    
  0.281500012       11.7330055    
  0.282000005       11.2990770    
  0.282499999       10.8445082    
  0.282999992       10.3681984    
  0.283499986       9.87072086    
  0.284000009       9.35184288    
  0.284500003       8.81108761    
  0.284999996       8.24822807    
  0.285499990       7.66305876    
  0.286000013       7.05546856    
  0.286500007       6.42550135    
  0.287000000       5.77276611    
  0.287499994       5.09702682    
  0.287999988       4.39829588    
  0.288500011       3.67671204    
  0.289000005       2.93238044    
  0.289499998       2.16448712    
  0.289999992       1.37355578    
  0.290499985      0.559330344    
  0.291000009     -0.277984053    
  0.291500002      -1.13862216    
  0.291999996      -2.02229285    
  0.292499989      -2.92904592    
  0.293000013      -3.85883594    
  0.293500006      -4.81148624    
  0.294000000      -5.78682137    
  0.294499993      -6.78463650    
  0.294999987      -7.80457020    
  0.295500010      -8.84675884    
  0.296000004      -9.91060448    
  0.296499997      -10.9959831    
  0.296999991      -12.1025906    
  0.297500014      -13.2301035    
  0.298000008      -14.3775673    
  0.298500001      -15.5453053    
  0.298999995      -16.7325325    
  0.299499989      -17.9392643    
  0.300000012      -19.1647186    
  0.300500005      -20.4077244    
  0.300999999      -21.6686668    
  0.301499993      -22.9465332    
  0.301999986      -24.2408829    
  0.302500010      -25.5505657    
  0.303000003      -26.8754559    
  0.303499997      -28.2146358    
  0.303999990      -29.5671864    
  0.304500014      -30.9323483    
  0.305000007      -32.3098984    
  0.305500001      -33.6979446    
  0.305999994      -35.0966225    
  0.306499988      -36.5045433    
  0.307000011      -37.9202309    
  0.307500005      -39.3433838    
  0.307999998      -40.7724190    
  0.308499992      -42.2069893    
  0.308999985      -43.6466675    
  0.309500009      -45.0889397    
  0.310000002      -46.5331268    
  0.310499996      -47.9785080    
  0.310999990      -49.4236107    
  0.311500013      -50.8670692    
  0.312000006      -52.3082848    
  0.312500000      -53.7453346    
  0.312999994      -55.1774902    
  0.313499987      -56.6034775    
  0.314000010      -58.0214806    
  0.314500004      -59.4303322    
  0.314999998      -60.8284836    
  0.315499991      -62.2146454    
  0.316000015      -63.5883369    
  0.316500008      -64.9467850    
  0.317000002      -66.2891464    
  0.317499995      -67.6135178    
  0.317999989      -68.9193649    
  0.318500012      -70.2046051    
  0.319000006      -71.4677124    
  0.319499999      -72.7073212    
  0.319999993      -73.9214249    
  0.320499986      -75.1095352    
  0.321000010      -76.2690430    
  0.321500003      -77.3989029    
  0.321999997      -78.4977722    
  0.322499990      -79.5636597    
  0.323000014      -80.5950012    
  0.323500007      -81.5906296    
  0.324000001      -82.5494156    
  0.324499995      -83.4695587    
  0.324999988      -84.3501358    
  0.325500011      -85.1887741    
  0.326000005      -85.9841995    
  0.326499999      -86.7351456    
  0.326999992      -87.4408112    
  0.327499986      -88.0987015    
  0.328000009      -88.7080002    
  0.328500003      -89.2665405    
  0.328999996      -89.7740021    
  0.329499990      -90.2277985    
  0.330000013      -90.6276398    
  0.330500007      -90.9712448    
  0.331000000      -91.2583008    
  0.331499994      -91.4873810    
  0.331999987      -91.6569290    
  0.332500011      -91.7661133    
  0.333000004      -91.8134613    
  0.333499998      -91.7981720    
  0.333999991      -91.7191696    
  0.334500015      -91.5756607    
  0.335000008      -91.3665771    
  0.335500002      -91.0913467    
  0.335999995      -90.7487946    
  0.336499989      -90.3385162    
  0.337000012      -89.8596649    
  0.337500006      -89.3110962    
  0.338000000      -88.6931381    
  0.338499993      -88.0048981    
  0.338999987      -87.2454147    
  0.339500010      -86.4144058    
  0.340000004      -85.5121384    
  0.340499997      -84.5377808    
  0.340999991      -83.4908981    
  0.341500014      -82.3716354    
  0.342000008      -81.1798325    
  0.342500001      -79.9154739    
  0.342999995      -78.5783234    
  0.343499988      -77.1689529    
  0.344000012      -75.6871033    
  0.344500005      -74.1331635    
  0.344999999      -72.5077286    
  0.345499992      -70.8110580    
  0.345999986      -69.0436935    
  0.346500009      -67.2063599    
  0.347000003      -65.2996140    
  0.347499996      -63.3243599    
  0.347999990      -61.2814178    
  0.348500013      -59.1716728    
  0.349000007      -56.9960136    
  0.349500000      -54.7555542    
  0.349999994      -52.4513245    
  0.350499988      -50.0846901    
  0.351000011      -47.6567802    
  0.351500005      -45.1691628    
  0.351999998      -42.6230888    
  0.352499992      -40.0199928    
  0.352999985      -37.3618202    
  0.353500009      -34.6493263    
  0.354000002      -31.8846416    
  0.354499996      -29.0696507    
  0.354999989      -26.2061577    
  0.355500013      -23.2954464    
  0.356000006      -20.3403854    
  0.356500000      -17.3427505    
  0.356999993      -14.3044939    
  0.357499987      -11.2278261    
  0.358000010      -8.11549473    
  0.358500004      -4.96936607    
  0.358999997      -1.79148102    
  0.359499991       1.41473305    
  0.360000014       4.64787722    
  0.360500008       7.90366697    
  0.361000001       11.1812477    
  0.361499995       14.4778891    
  0.361999989       17.7897167    
  0.362500012       21.1145267    
  0.363000005       24.4492416    
  0.363499999       27.7922134    
  0.363999993       31.1398106    
  0.364499986       34.4893265    
  0.365000010       37.8386078    
  0.365500003       41.1842346    
  0.365999997       44.5236969    
  0.366499990       47.8536148    
  0.367000014       51.1711349    
  0.367500007       54.4736404    
  0.368000001       57.7584496    
  0.368499994       61.0212631    
  0.368999988       64.2603302    
  0.369500011       67.4719772    
  0.370000005       70.6534271    
  0.370499998       73.8018875    
  0.370999992       76.9142838    
  0.371499985       79.9870605    
  0.372000009       83.0193787    
  0.372500002       86.0072327    
  0.372999996       88.9478378    
  0.373499990       91.8368759    
  0.374000013       94.6745071    
  0.374500006       97.4556885    
  0.375000000       100.178391    
  0.375499994       102.841408    
  0.375999987       105.440628    
  0.376500010       107.974701    
  0.377000004       110.439697    
  0.377499998       112.834183    
  0.377999991       115.155846    
  0.378500015       117.401558    
  0.379000008       119.569504    
  0.379500002       121.657417    
  0.379999995       123.665421    
  0.380499989       125.587845    
  0.381000012       127.425156    
  0.381500006       129.175705    
  0.381999999       130.836411    
  0.382499993       132.406662    
  0.382999986       133.883698    
  0.383500010       135.268433    
  0.384000003       136.558304    
  0.384499997       137.750275    
  0.384999990       138.845062    
  0.385500014       139.840714    
  0.386000007       140.738022    
  0.386500001       141.533417    
  0.386999995       142.227081    
  0.387499988       142.819122    
  0.388000011       143.308990    
  0.388500005       143.694534    
  0.388999999       143.977615    
  0.389499992       144.158157    
  0.389999986       144.234406    
  0.390500009       144.206650    
  0.391000003       144.075546    
  0.391499996       143.841141    
  0.391999990       143.503799    
  0.392500013       143.063599    
  0.393000007       142.519455    
  0.393500000       141.875641    
  0.393999994       141.130798    
  0.394499987       140.285934    
  0.395000011       139.342346    
  0.395500004       138.300323    
  0.395999998       137.160675    
  0.396499991       135.925186    
  0.397000015       134.595474    
  0.397500008       133.173157    
  0.398000002       131.659164    
  0.398499995       130.057297    
  0.398999989       128.367035    
  0.399500012       126.590881    
  0.400000006       124.731186    
  0.400500000       122.789955    
  0.400999993       120.768425    
  0.401499987       118.669815    
  0.402000010       116.496010    
  0.402500004       114.249939    
  0.402999997       111.933655    
  0.403499991       109.549164    
  0.404000014       107.100113    
  0.404500008       104.587151    
  0.405000001       102.014893    
  0.405499995       99.3839798    
  0.405999988       96.6993256    
  0.406500012       93.9625092    
  0.407000005       91.1760406    
  0.407499999       88.3422623    
  0.407999992       85.4667053    
  0.408499986       82.5486526    
  0.409000009       79.5940628    
  0.409500003       76.6052246    
  0.409999996       73.5843582    
  0.410499990       70.5336838    
  0.411000013       67.4582901    
  0.411500007       64.3606720    
  0.412000000       61.2443619    
  0.412499994       58.1121445    
  0.412999988       54.9668083    
  0.413500011       51.8124084    
  0.414000005       48.6513367    
  0.414499998       45.4860077    
  0.414999992       42.3214226    
  0.415499985       39.1583710    
  0.416000009       36.0016060    
  0.416500002       32.8524704    
  0.416999996       29.7145786    
  0.417499989       26.5910683    
  0.418000013       23.4839573    
  0.418500006       20.3965759    
  0.419000000       17.3316555    
  0.419499993       14.2917986    
  0.419999987       11.2787704    
  0.420500010       8.29565144    
  0.421000004       5.34525681    
  0.421499997       2.42997909    
  0.421999991     -0.447292894    
  0.422500014      -3.28486991    
  0.423000008      -6.07985973    
  0.423500001      -8.83080101    
  0.423999995      -11.5352449    
  0.424499989      -14.1907740    
  0.425000012      -16.7960644    
  0.425500005      -19.3488483    
  0.425999999      -21.8480263    
  0.426499993      -24.2907963    
  0.426999986      -26.6762867    
  0.427500010      -29.0030613    
  0.428000003      -31.2695789    