   0.00000000       0.00000000    
   5.00000024E-04   0.00000000    
   1.00000005E-03   0.00000000    
   1.50000001E-03  -7.58420645E-18
   2.00000009E-03  -6.49612927E-17
   2.49999994E-03  -2.97701561E-16
   3.00000003E-03  -9.73352877E-16
   3.50000011E-03  -2.54329816E-15
   4.00000019E-03  -5.62990443E-15
   4.49999981E-03  -1.09174847E-14
   4.99999989E-03  -1.89132327E-14
   5.49999997E-03  -2.95648414E-14
   6.00000005E-03  -4.17544248E-14
   6.50000013E-03  -5.27306741E-14
   7.00000022E-03  -5.75870392E-14
   7.49999983E-03  -4.89356175E-14
   8.00000038E-03  -1.69551534E-14
   8.50000046E-03   5.00019812E-14
   8.99999961E-03   1.64082899E-13
   9.49999969E-03   3.35786412E-13
   9.99999978E-03   5.70990412E-13
   1.04999999E-02   8.67281724E-13
   1.09999999E-02   1.20987194E-12
   1.15000000E-02   1.56754817E-12
   1.20000001E-02   1.88926587E-12
   1.25000002E-02   2.10211384E-12
   1.30000003E-02   2.11144969E-12
   1.35000004E-02   1.80398795E-12
   1.40000004E-02   1.05451260E-12
   1.44999996E-02  -2.63348859E-13
   1.49999997E-02  -2.26218870E-12
   1.54999997E-02  -5.02206826E-12
   1.60000008E-02  -8.56884355E-12
   1.64999999E-02  -1.28510145E-11
   1.70000009E-02  -1.77171385E-11
   1.75000001E-02  -2.28963255E-11
   1.79999992E-02  -2.79847482E-11
   1.85000002E-02  -3.24412164E-11
   1.89999994E-02  -3.55948430E-11
   1.95000004E-02  -3.66673601E-11
   1.99999996E-02  -3.48120074E-11
   2.05000006E-02  -2.91696944E-11
   2.09999997E-02  -1.89419383E-11
   2.15000007E-02  -3.47824005E-12
   2.19999999E-02   1.76260864E-11
   2.25000009E-02   4.44275172E-11
   2.30000000E-02   7.65349312E-11
   2.34999992E-02   1.13022203E-10
   2.40000002E-02   1.52362747E-10
   2.44999994E-02   1.92396141E-10
   2.50000004E-02   2.30336625E-10
   2.54999995E-02   2.62832006E-10
   2.60000005E-02   2.86078938E-10
   2.64999997E-02   2.95997532E-10
   2.70000007E-02   2.88464252E-10
   2.74999999E-02   2.59597704E-10
   2.80000009E-02   2.06086037E-10
   2.85000000E-02   1.25540828E-10
   2.89999992E-02   1.68565856E-11
   2.95000002E-02  -1.19448673E-10
   2.99999993E-02  -2.80939022E-10
   3.05000003E-02  -4.63041466E-10
   3.09999995E-02  -6.58930188E-10
   3.15000005E-02  -8.59540106E-10
   3.20000015E-02  -1.05373044E-09
   3.24999988E-02  -1.22861266E-09
   3.29999998E-02  -1.37004774E-09
   3.35000008E-02  -1.46330636E-09
   3.40000018E-02  -1.49387613E-09
   3.44999991E-02  -1.44838430E-09
   3.50000001E-02  -1.31559541E-09
   3.55000012E-02  -1.08743203E-09
   3.59999985E-02  -7.59954599E-10
   3.64999995E-02  -3.34237943E-10
   3.70000005E-02   1.82929616E-10
   3.75000015E-02   7.78588027E-10
   3.79999988E-02   1.43345147E-09
   3.84999998E-02   2.12210471E-09
   3.90000008E-02   2.81358714E-09
   3.95000018E-02   3.47237439E-09
   3.99999991E-02   4.05975031E-09
   4.05000001E-02   4.53553683E-09
   4.10000011E-02   4.86011453E-09
   4.14999984E-02   4.99666086E-09
   4.19999994E-02   4.91349006E-09
   4.25000004E-02   4.58637617E-09
   4.30000015E-02   4.00072153E-09
   4.34999987E-02   3.15342796E-09
   4.39999998E-02   2.05433870E-09
   4.45000008E-02   7.27119198E-10
   4.50000018E-02  -7.90525090E-10
   4.54999991E-02  -2.44737031E-09
   4.60000001E-02  -4.17997637E-09
   4.65000011E-02  -5.91477134E-09
   4.69999984E-02  -7.57086749E-09
   4.74999994E-02  -9.06352415E-09
   4.80000004E-02  -1.03081126E-08
   4.85000014E-02  -1.12244187E-08
   4.89999987E-02  -1.17410650E-08
   4.94999997E-02  -1.17998225E-08
   5.00000007E-02  -1.13595755E-08
   5.05000018E-02  -1.03996944E-08
   5.09999990E-02  -8.92257912E-09
   5.15000001E-02  -6.95520530E-09
   5.20000011E-02  -4.54949234E-09
   5.24999984E-02  -1.78141346E-09
   5.29999994E-02   1.25119215E-09
   5.35000004E-02   4.43206583E-09
   5.40000014E-02   7.63112951E-09
   5.44999987E-02   1.07100560E-08
   5.49999997E-02   1.35285756E-08
   5.55000007E-02   1.59512084E-08
   5.60000017E-02   1.78541022E-08
   5.64999990E-02   1.91316065E-08
   5.70000000E-02   1.97022256E-08
   5.75000010E-02   1.95135854E-08
   5.79999983E-02   1.85461460E-08
   5.84999993E-02   1.68153615E-08
   5.90000004E-02   1.43721204E-08
   5.95000014E-02   1.13014025E-08
   5.99999987E-02   7.71910713E-09
   6.04999997E-02   3.76719278E-09
   6.10000007E-02  -3.92688326E-10
   6.15000017E-02  -4.58676430E-09
   6.19999990E-02  -8.63755645E-09
   6.25000000E-02  -1.23727029E-08
   6.30000010E-02  -1.56337201E-08
   6.35000020E-02  -1.82842204E-08
   6.40000030E-02  -2.02171329E-08
   6.44999966E-02  -2.13604689E-08
   6.49999976E-02  -2.16813181E-08
   6.54999986E-02  -2.11877573E-08
   6.59999996E-02  -1.99285406E-08
   6.65000007E-02  -1.79905388E-08
   6.70000017E-02  -1.54939723E-08
   6.75000027E-02  -1.25857023E-08
   6.80000037E-02  -9.43087741E-09
   6.84999973E-02  -6.20339291E-09
   6.89999983E-02  -3.07567150E-09
   6.94999993E-02  -2.08350198E-10
   7.00000003E-02   2.25953567E-09
   7.05000013E-02   4.21927782E-09
   7.10000023E-02   5.59958213E-09
   7.15000033E-02   6.37154640E-09
   7.19999969E-02   6.55117116E-09
   7.24999979E-02   6.19915896E-09
   7.29999989E-02   5.41792655E-09
   7.34999999E-02   4.34589387E-09
   7.40000010E-02   3.14928972E-09
   7.45000020E-02   2.01185979E-09
   7.50000030E-02   1.12299259E-09
   7.54999965E-02   6.64899802E-10
   7.59999976E-02   7.99570188E-10
   7.64999986E-02   1.65624658E-09
   7.69999996E-02   3.32018613E-09
   7.75000006E-02   5.82342530E-09
   7.80000016E-02   9.13818798E-09
   7.85000026E-02   1.31734428E-08
   7.90000036E-02   1.77749939E-08
   7.94999972E-02   2.27292620E-08
   7.99999982E-02   2.77707723E-08
   8.04999992E-02   3.25931104E-08
   8.10000002E-02   3.68629607E-08
   8.15000013E-02   4.02365750E-08
   8.20000023E-02   4.23779909E-08
   8.25000033E-02   4.29780336E-08
   8.29999968E-02   4.17732089E-08
   8.34999979E-02   3.85634031E-08
   8.39999989E-02   3.32274936E-08
   8.44999999E-02   2.57358881E-08
   8.50000009E-02   1.61592091E-08
   8.55000019E-02   4.67251526E-09
   8.60000029E-02  -8.44540526E-09
   8.64999965E-02  -2.28178401E-08
   8.69999975E-02  -3.79810139E-08
   8.74999985E-02  -5.33996847E-08
   8.79999995E-02  -6.84869264E-08
   8.85000005E-02  -8.26272810E-08
   8.90000015E-02  -9.52023171E-08
   8.95000026E-02  -1.05617417E-07
   9.00000036E-02  -1.13328610E-07
   9.04999971E-02  -1.17868048E-07
   9.09999982E-02  -1.18866943E-07
   9.14999992E-02  -1.16074823E-07
   9.20000002E-02  -1.09373879E-07
   9.25000012E-02  -9.87877868E-08
   9.30000022E-02  -8.44842489E-08
   9.35000032E-02  -6.67710509E-08
   9.39999968E-02  -4.60855780E-08
   9.44999978E-02  -2.29780568E-08
   9.49999988E-02   1.91068272E-09
   9.54999998E-02   2.78762098E-08
   9.60000008E-02   5.41809833E-08
   9.65000018E-02   8.00870623E-08
   9.70000029E-02   1.04889452E-07
   9.74999964E-02   1.27948638E-07
   9.79999974E-02   1.48720716E-07
   9.84999985E-02   1.66783636E-07
   9.89999995E-02   1.81858297E-07
   9.95000005E-02   1.93823496E-07
  0.100000001       2.02723641E-07
  0.100500003       2.08769251E-07
  0.101000004       2.12329653E-07
  0.101499997       2.13918341E-07
  0.101999998       2.14171706E-07
  0.102499999       2.13821707E-07
  0.103000000       2.13664194E-07
  0.103500001       2.14524050E-07
  0.104000002       2.17218670E-07
  0.104500003       2.22521976E-07
  0.104999997       2.31130031E-07
  0.105499998       2.43630581E-07
  0.105999999       2.60477435E-07
  0.106500000       2.81971381E-07
  0.107000001       3.08248104E-07
  0.107500002       3.39274322E-07
  0.108000003       3.74851822E-07
  0.108499996       4.14629454E-07
  0.108999997       4.58122656E-07
  0.109499998       5.04739262E-07
  0.109999999       5.53810935E-07
  0.110500000       6.04628156E-07
  0.111000001       6.56477710E-07
  0.111500002       7.08680091E-07
  0.112000003       7.60626392E-07
  0.112499997       8.11811503E-07
  0.112999998       8.61863555E-07
  0.113499999       9.10566996E-07
  0.114000000       9.57879365E-07
  0.114500001       1.00394061E-06
  0.115000002       1.04907497E-06
  0.115500003       1.09378391E-06
  0.115999997       1.13873443E-06
  0.116499998       1.18473884E-06
  0.116999999       1.23273071E-06
  0.117500000       1.28373540E-06
  0.118000001       1.33883952E-06
  0.118500002       1.39915858E-06
  0.119000003       1.46580555E-06
  0.119499996       1.53986127E-06
  0.119999997       1.62234824E-06
  0.120499998       1.71420834E-06
  0.120999999       1.81628718E-06
  0.121500000       1.92932384E-06
  0.122000001       2.05394576E-06
  0.122500002       2.19067215E-06
  0.123000003       2.33992023E-06
  0.123499997       2.50201924E-06
  0.123999998       2.67722930E-06
  0.124499999       2.86576187E-06
  0.125000000       3.06780385E-06
  0.125499994       3.28354463E-06
  0.126000002       3.51320136E-06
  0.126499996       3.75704462E-06
  0.127000004       4.01542275E-06
  0.127499998       4.28878366E-06
  0.128000006       4.57769465E-06
  0.128500000       4.88285605E-06
  0.128999993       5.20511458E-06
  0.129500002       5.54547114E-06
  0.129999995       5.90508580E-06
  0.130500004       6.28527732E-06
  0.130999997       6.68752091E-06
  0.131500006       7.11344364E-06
  0.131999999       7.56481768E-06
  0.132499993       8.04354841E-06
  0.133000001       8.55166400E-06
  0.133499995       9.09130449E-06
  0.134000003       9.66470907E-06
  0.134499997       1.02742033E-05
  0.135000005       1.09221864E-05
  0.135499999       1.16111205E-05
  0.136000007       1.23435193E-05
  0.136500001       1.31219449E-05
  0.136999995       1.39489957E-05
  0.137500003       1.48273084E-05
  0.137999997       1.57595514E-05
  0.138500005       1.67484359E-05
  0.138999999       1.77967177E-05
  0.139500007       1.89072107E-05
  0.140000001       2.00827963E-05
  0.140499994       2.13264502E-05
  0.141000003       2.26412649E-05
  0.141499996       2.40304762E-05
  0.142000005       2.54975002E-05
  0.142499998       2.70459623E-05
  0.143000007       2.86797385E-05
  0.143500000       3.04030054E-05
  0.143999994       3.22202686E-05
  0.144500002       3.41364066E-05
  0.144999996       3.61567108E-05
  0.145500004       3.82869257E-05
  0.145999998       4.05332685E-05
  0.146500006       4.29024585E-05
  0.147000000       4.54017500E-05
  0.147499993       4.80389317E-05
  0.148000002       5.08223347E-05
  0.148499995       5.37608212E-05
  0.149000004       5.68637988E-05
  0.149499997       6.01411703E-05
  0.150000006       6.36033510E-05
  0.150500000       6.72612223E-05
  0.150999993       7.11261018E-05
  0.151500002       7.52097330E-05
  0.151999995       7.95242449E-05
  0.152500004       8.40821522E-05
  0.152999997       8.88963259E-05
  0.153500006       9.39799866E-05
  0.153999999       9.93467256E-05
  0.154499993       1.05010527E-04
  0.155000001       1.10985762E-04
  0.155499995       1.17287243E-04
  0.156000003       1.23930295E-04
  0.156499997       1.30930814E-04
  0.157000005       1.38305302E-04
  0.157499999       1.46071034E-04
  0.158000007       1.54246023E-04
  0.158500001       1.62849232E-04
  0.158999994       1.71900596E-04
  0.159500003       1.81421085E-04
  0.159999996       1.91432890E-04
  0.160500005       2.01959439E-04
  0.160999998       2.13025472E-04
  0.161500007       2.24657182E-04
  0.162000000       2.36882188E-04
  0.162499994       2.49729637E-04
  0.163000003       2.63230235E-04
  0.163499996       2.77416228E-04
  0.164000005       2.92321551E-04
  0.164499998       3.07981798E-04
  0.165000007       3.24434135E-04
  0.165500000       3.41717503E-04
  0.165999994       3.59872472E-04
  0.166500002       3.78941389E-04
  0.166999996       3.98968288E-04
  0.167500004       4.19999007E-04
  0.167999998       4.42081073E-04
  0.168500006       4.65263991E-04
  0.169000000       4.89599071E-04
  0.169499993       5.15139604E-04
  0.170000002       5.41940914E-04
  0.170499995       5.70060394E-04
  0.171000004       5.99557592E-04
  0.171499997       6.30494382E-04
  0.172000006       6.62935141E-04
  0.172499999       6.96946576E-04
  0.172999993       7.32598011E-04
  0.173500001       7.69961684E-04
  0.173999995       8.09112506E-04
  0.174500003       8.50128359E-04
  0.174999997       8.93090444E-04
  0.175500005       9.38082812E-04
  0.175999999       9.85193299E-04
  0.176499993       1.03451300E-03
  0.177000001       1.08613679E-03
  0.177499995       1.14016340E-03
  0.178000003       1.19669538E-03
  0.178499997       1.25583936E-03
  0.179000005       1.31770642E-03
  0.179499999       1.38241181E-03
  0.180000007       1.45007542E-03
  0.180500001       1.52082182E-03
  0.180999994       1.59478013E-03
  0.181500003       1.67208479E-03
  0.181999996       1.75287540E-03
  0.182500005       1.83729641E-03
  0.182999998       1.92549801E-03
  0.183500007       2.01763585E-03
  0.184000000       2.11387081E-03
  0.184499994       2.21437053E-03
  0.185000002       2.31930753E-03
  0.185499996       2.42886157E-03
  0.186000004       2.54321727E-03
  0.186499998       2.66256672E-03
  0.187000006       2.78710760E-03
  0.187500000       2.91704480E-03
  0.187999994       3.05258948E-03
  0.188500002       3.19396053E-03
  0.188999996       3.34138377E-03
  0.189500004       3.49509227E-03
  0.189999998       3.65532632E-03
  0.190500006       3.82233434E-03
  0.191000000       3.99637315E-03
  0.191499993       4.17770585E-03
  0.192000002       4.36660601E-03
  0.192499995       4.56335535E-03
  0.193000004       4.76824306E-03
  0.193499997       4.98156948E-03
  0.194000006       5.20364288E-03
  0.194499999       5.43478318E-03
  0.194999993       5.67531772E-03
  0.195500001       5.92558598E-03
  0.195999995       6.18593628E-03
  0.196500003       6.45672949E-03
  0.196999997       6.73833583E-03
  0.197500005       7.03113759E-03
  0.197999999       7.33552827E-03
  0.198500007       7.65191205E-03
  0.199000001       7.98070710E-03
  0.199499995       8.32234230E-03
  0.200000003       8.67725816E-03
  0.200499997       9.04591009E-03
  0.201000005       9.42876190E-03
  0.201499999       9.82629415E-03
  0.202000007       1.02389986E-02
  0.202500001       1.06673809E-02
  0.202999994       1.11119598E-02
  0.203500003       1.15732672E-02
  0.203999996       1.20518459E-02
  0.204500005       1.25482557E-02
  0.204999998       1.30630713E-02
  0.205500007       1.35968802E-02
  0.206000000       1.41502814E-02
  0.206499994       1.47238905E-02
  0.207000002       1.53183397E-02
  0.207499996       1.59342755E-02
  0.208000004       1.65723562E-02
  0.208499998       1.72332563E-02
  0.209000006       1.79176684E-02
  0.209500000       1.86263006E-02
  0.209999993       1.93598699E-02
  0.210500002       2.01191157E-02
  0.210999995       2.09047887E-02
  0.211500004       2.17176639E-02
  0.211999997       2.25585215E-02
  0.212500006       2.34281626E-02
  0.213000000       2.43274011E-02
  0.213499993       2.52570752E-02
  0.214000002       2.62180306E-02
  0.214499995       2.72111371E-02
  0.215000004       2.82372758E-02
  0.215499997       2.92973444E-02
  0.216000006       3.03922538E-02
  0.216499999       3.15229297E-02
  0.216999993       3.26903202E-02
  0.217500001       3.38953920E-02
  0.217999995       3.51391137E-02
  0.218500003       3.64224724E-02
  0.218999997       3.77464853E-02
  0.219500005       3.91121656E-02
  0.219999999       4.05205414E-02
  0.220500007       4.19726558E-02
  0.221000001       4.34695743E-02
  0.221499994       4.50123772E-02
  0.222000003       4.66021523E-02
  0.222499996       4.82399873E-02
  0.223000005       4.99269962E-02
  0.223499998       5.16643040E-02
  0.224000007       5.34530506E-02
  0.224500000       5.52943721E-02
  0.224999994       5.71894199E-02
  0.225500003       5.91393597E-02
  0.225999996       6.11453578E-02
  0.226500005       6.32086024E-02
  0.226999998       6.53302819E-02
  0.227500007       6.75115809E-02
  0.228000000       6.97536990E-02
  0.228499994       7.20578507E-02
  0.229000002       7.44252354E-02
  0.229499996       7.68570676E-02
  0.230000004       7.93545470E-02
  0.230499998       8.19188952E-02
  0.231000006       8.45513195E-02
  0.231500000       8.72530267E-02
  0.231999993       9.00252238E-02
  0.232500002       9.28691104E-02
  0.232999995       9.57858935E-02
  0.233500004       9.87767503E-02
  0.233999997      0.101842880    
  0.234500006      0.104985431    
  0.234999999      0.108205564    
  0.235499993      0.111504436    
  0.236000001      0.114883162    
  0.236499995      0.118342847    
  0.237000003      0.121884599    
  0.237499997      0.125509471    
  0.238000005      0.129218534    
  0.238499999      0.133012801    
  0.238999993      0.136893302    
  0.239500001      0.140860990    
  0.239999995      0.144916818    
  0.240500003      0.149061710    
  0.240999997      0.153296530    
  0.241500005      0.157622129    
  0.241999999      0.162039325    
  0.242500007      0.166548878    
  0.243000001      0.171151489    
  0.243499994      0.175847858    
  0.244000003      0.180638611    
  0.244499996      0.185524344    
  0.245000005      0.190505549    
  0.245499998      0.195582703    
  0.246000007      0.200756207    
  0.246500000      0.206026390    
  0.246999994      0.211393550    
  0.247500002      0.216857865    
  0.247999996      0.222419485    
  0.248500004      0.228078499    
  0.248999998      0.233834863    
  0.249500006      0.239688471    
  0.250000000      0.245639145    
  0.250499994      0.251686662    
  0.250999987      0.257830620    
  0.251500010      0.264070630    
  0.252000004      0.270406067    
  0.252499998      0.276836306    
  0.252999991      0.283360630    
  0.253500015      0.289978176    
  0.254000008      0.296688020    
  0.254500002      0.303489089    
  0.254999995      0.310380220    
  0.255499989      0.317360103    
  0.256000012      0.324427366    
  0.256500006      0.331580490    
  0.256999999      0.338817865    
  0.257499993      0.346137643    
  0.257999986      0.353537858    
  0.258500010      0.361016542    
  0.259000003      0.368571460    
  0.259499997      0.376200229    
  0.259999990      0.383900315    
  0.260500014      0.391669124    
  0.261000007      0.399503797    
  0.261500001      0.407401413    
  0.261999995      0.415358901    
  0.262499988      0.423372984    
  0.263000011      0.431440115    
  0.263500005      0.439556748    
  0.263999999      0.447719097    
  0.264499992      0.455923170    
  0.264999986      0.464164853    
  0.265500009      0.472439885    
  0.266000003      0.480743796    
  0.266499996      0.489071935    
  0.266999990      0.497419506    
  0.267500013      0.505781472    
  0.268000007      0.514152706    
  0.268500000      0.522527814    
  0.268999994      0.530901194    
  0.269499987      0.539267123    
  0.270000011      0.547619641    
  0.270500004      0.555952668    
  0.270999998      0.564259648    
  0.271499991      0.572534204    
  0.272000015      0.580769718    
  0.272500008      0.588959217    
  0.273000002      0.597095668    
  0.273499995      0.605171680    
  0.273999989      0.613179803    
  0.274500012      0.621112466    
  0.275000006      0.628961682    
  0.275500000      0.636719644    
  0.275999993      0.644378126    
  0.276499987      0.651928723    
  0.277000010      0.659362733    
  0.277500004      0.666671515    
  0.277999997      0.673845947    
  0.278499991      0.680877030    
  0.279000014      0.687755346    
  0.279500008      0.694471538    
  0.280000001      0.701015949    
  0.280499995      0.707378745    
  0.280999988      0.713550150    
  0.281500012      0.719520092    
  0.282000005      0.725278139    
  0.282499999      0.730814099    
  0.282999992      0.736117244    
  0.283499986      0.741176963    
  0.284000009      0.745982647    
  0.284500003      0.750523388    
  0.284999996      0.754788220    
  0.285499990      0.758766055    
  0.286000013      0.762445688    
  0.286500007      0.765815914    
  0.287000000      0.768865466    
  0.287499994      0.771582901    
  0.287999988      0.773956716    
  0.288500011      0.775975466    
  0.289000005      0.777627766    
  0.289499998      0.778901994    
  0.289999992      0.779786468    
  0.290499985      0.780269682    
  0.291000009      0.780340016    
  0.291500002      0.779985905    
  0.291999996      0.779195666    
  0.292499989      0.777957857    
  0.293000013      0.776260912    
  0.293500006      0.774093330    
  0.294000000      0.771443725    
  0.294499993      0.768300891    
  0.294999987      0.764653563    
  0.295500010      0.760490716    
  0.296000004      0.755801380    
  0.296499997      0.750574708    
  0.296999991      0.744800031    
  0.297500014      0.738466918    
  0.298000008      0.731564999    
  0.298500001      0.724084258    
  0.298999995      0.716014743    
  0.299499989      0.707346737    
  0.300000012      0.698070765    
  0.300500005      0.688177645    
  0.300999999      0.677658498    
  0.301499993      0.666504741    
  0.301999986      0.654707909    
  0.302500010      0.642260015    
  0.303000003      0.629153550    
  0.303499997      0.615381002    
  0.303999990      0.600935519    
  0.304500014      0.585810602    
  0.305000007      0.569999993    
  0.305500001      0.553498089    
  0.305999994      0.536299467    
  0.306499988      0.518399179    
  0.307000011      0.499792963    
  0.307500005      0.480477065    
  0.307999998      0.460448086    
  0.308499992      0.439703196    
  0.308999985      0.418239772    
  0.309500009      0.396055847    
  0.310000002      0.373150349    
  0.310499996      0.349522442    
  0.310999990      0.325171918    
  0.311500013      0.300099254    
  0.312000006      0.274305403    
  0.312500000      0.247792020    
  0.312999994      0.220561311    
  0.313499987      0.192616075    
  0.314000010      0.163959831    
  0.314500004      0.134596884    
  0.314999998      0.104532167    
  0.315499991       7.37713873E-02
  0.316000015       4.23206426E-02
  0.316500008       1.01868650E-02
  0.317000002      -2.26221103E-02
  0.317499995      -5.60977794E-02
  0.317999989      -9.02310014E-02
  0.318500012     -0.125011981    
  0.319000006     -0.160430059    
  0.319499999     -0.196473822    
  0.319999993     -0.233131006    
  0.320499986     -0.270388752    
  0.321000010     -0.308233410    
  0.321500003     -0.346650392    
  0.321999997     -0.385624558    
  0.322499990     -0.425139964    
  0.323000014     -0.465179652    
  0.323500007     -0.505726099    
  0.324000001     -0.546761036    
  0.324499995     -0.588265777    
  0.324999988     -0.630220711    
  0.325500011     -0.672605455    
  0.326000005     -0.715398669    
  0.326499999     -0.758578420    
  0.326999992     -0.802122474    
  0.327499986     -0.846007288    
  0.328000009     -0.890209019    
  0.328500003     -0.934702635    
  0.328999996     -0.979462743    
  0.329499990      -1.02446330    
  0.330000013      -1.06967711    
  0.330500007      -1.11507690    
  0.331000000      -1.16063440    
  0.331499994      -1.20632076    
  0.331999987      -1.25210690    
  0.332500011      -1.29796267    
  0.333000004      -1.34385765    
  0.333499998      -1.38976061    
  0.333999991      -1.43563986    
  0.334500015      -1.48146355    
  0.335000008      -1.52719903    
  0.335500002      -1.57281351    
  0.335999995      -1.61827350    
  0.336499989      -1.66354525    
  0.337000012      -1.70859468    
  0.337500006      -1.75338745    
  0.338000000      -1.79788852    
  0.338499993      -1.84206307    
  0.338999987      -1.88587570    
  0.339500010      -1.92929065    
  0.340000004      -1.97227228    
  0.340499997      -2.01478481    
  0.340999991      -2.05679178    
  0.341500014      -2.09825730    
  0.342000008      -2.13914514    
  0.342500001      -2.17941904    
  0.342999995      -2.21904254    
  0.343499988      -2.25797915    
  0.344000012      -2.29619312    
  0.344500005      -2.33364820    
  0.344999999      -2.37030864    
  0.345499992      -2.40613842    
  0.345999986      -2.44110203    
  0.346500009      -2.47516465    
  0.347000003      -2.50829124    
  0.347499996      -2.54044724    
  0.347999990      -2.57159853    
  0.348500013      -2.60171175    
  0.349000007      -2.63075376    
  0.349500000      -2.65869141    
  0.349999994      -2.68549323    
  0.350499988      -2.71112704    
  0.351000011      -2.73556256    
  0.351500005      -2.75876904    
  0.351999998      -2.78071690    
  0.352499992      -2.80137777    
  0.352999985      -2.82072306    
  0.353500009      -2.83872581    
  0.354000002      -2.85535932    
  0.354499996      -2.87059808    
  0.354999989      -2.88441706    
  0.355500013      -2.89679241    
  0.356000006      -2.90770149    
  0.356500000      -2.91712236    
  0.356999993      -2.92503428    
  0.357499987      -2.93141723    
  0.358000010      -2.93625307    
  0.358500004      -2.93952441    
  0.358999997      -2.94121456    
  0.359499991      -2.94130898    
  0.360000014      -2.93979335    
  0.360500008      -2.93665552    
  0.361000001      -2.93188429    
  0.361499995      -2.92546940    
  0.361999989      -2.91740251    
  0.362500012      -2.90767646    
  0.363000005      -2.89628553    
  0.363499999      -2.88322544    
  0.363999993      -2.86849260    
  0.364499986      -2.85208535    
  0.365000010      -2.83400369    
  0.365500003      -2.81424832    
  0.365999997      -2.79282141    
  0.366499990      -2.76972699    
  0.367000014      -2.74497080    
  0.367500007      -2.71855974    
  0.368000001      -2.69050169    
  0.368499994      -2.66080642    
  0.368999988      -2.62948608    
  0.369500011      -2.59655333    
  0.370000005      -2.56202173    
  0.370499998      -2.52590799    
  0.370999992      -2.48822880    
  0.371499985      -2.44900346    
  0.372000009      -2.40825176    
  0.372500002      -2.36599517    
  0.372999996      -2.32225657    
  0.373499990      -2.27706051    
  0.374000013      -2.23043275    
  0.374500006      -2.18240047    
  0.375000000      -2.13299179    
  0.375499994      -2.08223701    
  0.375999987      -2.03016639    
  0.376500010      -1.97681248    
  0.377000004      -1.92220879    
  0.377499998      -1.86639035    
  0.377999991      -1.80939281    
  0.378500015      -1.75125337    
  0.379000008      -1.69201052    
  0.379500002      -1.63170373    
  0.379999995      -1.57037306    
  0.380499989      -1.50805974    
  0.381000012      -1.44480634    
  0.381500006      -1.38065612    
  0.381999999      -1.31565320    
  0.382499993      -1.24984252    
  0.382999986      -1.18326998    
  0.383500010      -1.11598194    
  0.384000003      -1.04802525    
  0.384499997     -0.979448080    
  0.384999990     -0.910299242    
  0.385500014     -0.840627849    
  0.386000007     -0.770483196    
  0.386500001     -0.699915290    
  0.386999995     -0.628975153    
  0.387499988     -0.557713628    
  0.388000011     -0.486181587    
  0.388500005     -0.414430708    
  0.388999999     -0.342512697    
  0.389499992     -0.270478755    
  0.389999986     -0.198380589    
  0.390500009     -0.126270339    
  0.391000003      -5.41997813E-02
  0.391499996       1.77794062E-02
  0.391999990       8.96156579E-02
  0.392500013      0.161257520    
  0.393000007      0.232653305    
  0.393500000      0.303752095    
  0.393999994      0.374503702    
  0.394499987      0.444857866    
  0.395000011      0.514764965    
  0.395500004      0.584175646    
  0.395999998      0.653040826    
  0.396499991      0.721312344    
  0.397000015      0.788942516    
  0.397500008      0.855884731    
  0.398000002      0.922092795    
  0.398499995      0.987521887    
  0.398999989       1.05212796    
  0.399500012       1.11586750    
  0.400000006       1.17869794    
  0.400500000       1.24057829    
  0.400999993       1.30146790    
  0.401499987       1.36132753    
  0.402000010       1.42011905    
  0.402500004       1.47780550    
  0.402999997       1.53435135    
  0.403499991       1.58972204    
  0.404000014       1.64388430    
  0.404500008       1.69680595    
  0.405000001       1.74845648    
  0.405499995       1.79880619    
  0.405999988       1.84782696    
  0.406500012       1.89549243    
  0.407000005       1.94177699    
  0.407499999       1.98665643    
  0.407999992       2.03010869    
  0.408499986       2.07211256    
  0.409000009       2.11264825    
  0.409500003       2.15169811    
  0.409999996       2.18924546    
  0.410499990       2.22527504    
  0.411000013       2.25977325    
  0.411500007       2.29272795    
  0.412000000       2.32412910    
  0.412499994       2.35396814    
  0.412999988       2.38223791    
  0.413500011       2.40893269    
  0.414000005       2.43404841    
  0.414499998       2.45758247    
  0.414999992       2.47953439    
  0.415499985       2.49990416    
  0.416000009       2.51869392    
  0.416500002       2.53590751    
  0.416999996       2.55154943    
  0.417499989       2.56562567    
  0.418000013       2.57814455    
  0.418500006       2.58911467    
  0.419000000       2.59854650    
  0.419499993       2.60645247    
  0.419999987       2.61284494    
  0.420500010       2.61773825    
  0.421000004       2.62114835    
  0.421499997       2.62309217    
  0.421999991       2.62358785    
  0.422500014       2.62265468    
  0.423000008       2.62031364    
  0.423500001       2.61658573    
  0.423999995       2.61149383    
  0.424499989       2.60506225    
  0.425000012       2.59731579    
  0.425500005       2.58827949    
  0.425999999       2.57798028    
  0.426499993       2.56644559    
  0.426999986       2.55370378    
  0.427500010       2.53978372    
  0.428000003       2.52471566    