   0.00000000       0.00000000    
   5.00000024E-04   0.00000000    
   1.00000005E-03   0.00000000    
   1.50000001E-03   5.38323352E-19
   2.00000009E-03   4.64566221E-18
   2.49999994E-03   2.14634741E-17
   3.00000003E-03   7.07211167E-17
   3.50000011E-03   1.85886767E-16
   4.00000019E-03   4.12297919E-16
   4.49999981E-03   7.95263935E-16
   4.99999989E-03   1.35247233E-15
   5.49999997E-03   2.02558167E-15
   6.00000005E-03   2.60818237E-15
   6.50000013E-03   2.65181769E-15
   7.00000022E-03   1.35863238E-15
   7.49999983E-03  -2.52185806E-15
   8.00000038E-03  -1.07642251E-14
   8.50000046E-03  -2.56692437E-14
   8.99999961E-03  -4.99516674E-14
   9.49999969E-03  -8.64661194E-14
   9.99999978E-03  -1.37728628E-13
   1.04999999E-02  -2.05206661E-13
   1.09999999E-02  -2.88377503E-13
   1.15000000E-02  -3.83593737E-13
   1.20000001E-02  -4.82844613E-13
   1.25000002E-02  -5.72558168E-13
   1.30000003E-02  -6.32647038E-13
   1.35000004E-02  -6.36050240E-13
   1.40000004E-02  -5.49057002E-13
   1.44999996E-02  -3.32702941E-13
   1.49999997E-02   5.45016811E-14
   1.54999997E-02   6.52333385E-13
   1.60000008E-02   1.49305297E-12
   1.64999999E-02   2.59416750E-12
   1.70000009E-02   3.95010196E-12
   1.75000001E-02   5.52338080E-12
   1.79999992E-02   7.23616479E-12
   1.85000002E-02   8.96323554E-12
   1.89999994E-02   1.05276855E-11
   1.95000004E-02   1.17006743E-11
   1.99999996E-02   1.22065639E-11
   2.05000006E-02   1.17345725E-11
   2.09999997E-02   9.95772128E-12
   2.15000007E-02   6.55931863E-12
   2.19999999E-02   1.26653061E-12
   2.25000009E-02  -6.11023255E-12
   2.30000000E-02  -1.56343029E-11
   2.34999992E-02  -2.71991960E-11
   2.40000002E-02  -4.04884112E-11
   2.44999994E-02  -5.49431924E-11
   2.50000004E-02  -6.97430863E-11
   2.54999995E-02  -8.38042968E-11
   2.60000005E-02  -9.58001803E-11
   2.64999997E-02  -1.04207441E-10
   2.70000007E-02  -1.07379883E-10
   2.74999999E-02  -1.03649860E-10
   2.80000009E-02  -9.14549408E-11
   2.85000000E-02  -6.94848970E-11
   2.89999992E-02  -3.68412696E-11
   2.95000002E-02   6.80078346E-12
   2.99999993E-02   6.10407627E-11
   3.05000003E-02   1.24625310E-10
   3.09999995E-02   1.95359603E-10
   3.15000005E-02   2.70071798E-10
   3.20000015E-02   3.44643425E-10
   3.24999988E-02   4.14115298E-10
   3.29999998E-02   4.72874351E-10
   3.35000008E-02   5.14922160E-10
   3.40000018E-02   5.34218392E-10
   3.44999991E-02   5.25087140E-10
   3.50000001E-02   4.82667017E-10
   3.55000012E-02   4.03378303E-10
   3.59999985E-02   2.85377805E-10
   3.64999995E-02   1.28965921E-10
   3.70000005E-02  -6.30895960E-11
   3.75000015E-02  -2.85348689E-10
   3.79999988E-02  -5.29643496E-10
   3.84999998E-02  -7.85198351E-10
   3.90000008E-02  -1.03893960E-09
   3.95000018E-02  -1.27600130E-09
   3.99999991E-02  -1.48041635E-09
   4.05000001E-02  -1.63597025E-09
   4.10000011E-02  -1.72718084E-09
   4.14999984E-02  -1.74035186E-09
   4.19999994E-02  -1.66463965E-09
   4.25000004E-02  -1.49306245E-09
   4.30000015E-02  -1.22337807E-09
   4.34999987E-02  -8.58757399E-10
   4.39999998E-02  -4.08186540E-10
   4.45000008E-02   1.13457709E-10
   4.50000018E-02   6.85698442E-10
   4.54999991E-02   1.28313338E-09
   4.60000001E-02   1.87648586E-09
   4.65000011E-02   2.43400211E-09
   4.69999984E-02   2.92313329E-09
   4.74999994E-02   3.31242034E-09
   4.80000004E-02   3.57347552E-09
   4.85000014E-02   3.68293884E-09
   4.89999987E-02   3.62428110E-09
   4.94999997E-02   3.38932082E-09
   5.00000007E-02   2.97933367E-09
   5.05000018E-02   2.40564657E-09
   5.09999990E-02   1.68964220E-09
   5.15000001E-02   8.62120431E-10
   5.20000011E-02  -3.79815866E-11
   5.24999984E-02  -9.65479918E-10
   5.29999994E-02  -1.87136195E-09
   5.35000004E-02  -2.70561018E-09
   5.40000014E-02  -3.42027451E-09
   5.44999987E-02  -3.97260536E-09
   5.49999997E-02  -4.32804370E-09
   5.55000007E-02  -4.46286252E-09
   5.60000017E-02  -4.36625403E-09
   5.64999990E-02  -4.04169498E-09
   5.70000000E-02  -3.50744256E-09
   5.75000010E-02  -2.79608248E-09
   5.79999983E-02  -1.95308925E-09
   5.84999993E-02  -1.03443865E-09
   5.90000004E-02  -1.03370978E-10
   5.95000014E-02   7.73528130E-10
   5.99999987E-02   1.53070900E-09
   6.04999997E-02   2.10823181E-09
   6.10000007E-02   2.45623721E-09
   6.15000017E-02   2.53900390E-09
   6.19999990E-02   2.33829245E-09
   6.25000000E-02   1.85570537E-09
   6.30000010E-02   1.11384257E-09
   6.35000020E-02   1.56097579E-10
   6.40000030E-02  -9.54972323E-10
   6.44999966E-02  -2.14068385E-09
   6.49999976E-02  -3.31055250E-09
   6.54999986E-02  -4.36769731E-09
   6.59999996E-02  -5.21502619E-09
   6.65000007E-02  -5.76183679E-09
   6.70000017E-02  -5.93042104E-09
   6.75000027E-02  -5.66223379E-09
   6.80000037E-02  -4.92319163E-09
   6.84999973E-02  -3.70770015E-09
   6.89999983E-02  -2.04107509E-09
   6.94999993E-02   1.98974170E-11
   7.00000003E-02   2.38840148E-09
   7.05000013E-02   4.95105157E-09
   7.10000023E-02   7.57325846E-09
   7.15000033E-02   1.01062572E-08
   7.19999969E-02   1.23954376E-08
   7.24999979E-02   1.42895065E-08
   7.29999989E-02   1.56499400E-08
   7.34999999E-02   1.63601435E-08
   7.40000010E-02   1.63337184E-08
   7.45000020E-02   1.55212767E-08
   7.50000030E-02   1.39153080E-08
   7.54999965E-02   1.15527037E-08
   7.59999976E-02   8.51467430E-09
   7.64999986E-02   4.92397145E-09
   7.69999996E-02   9.39462619E-10
   7.75000006E-02  -3.25169669E-09
   7.80000016E-02  -7.44390061E-09
   7.85000026E-02  -1.14244063E-08
   7.90000036E-02  -1.49854689E-08
   7.94999972E-02  -1.79365802E-08
   7.99999982E-02  -2.01160564E-08
   8.04999992E-02  -2.14012363E-08
   8.10000002E-02  -2.17166285E-08
   8.15000013E-02  -2.10394422E-08
   8.20000023E-02  -1.94020888E-08
   8.25000033E-02  -1.68914340E-08
   8.29999968E-02  -1.36447547E-08
   8.34999979E-02  -9.84258275E-09
   8.39999989E-02  -5.69880054E-09
   8.44999999E-02  -1.44855905E-09
   8.50000009E-02   2.66530487E-09
   8.55000019E-02   6.40651754E-09
   8.60000029E-02   9.55943680E-09
   8.64999965E-02   1.19420598E-08
   8.69999975E-02   1.34171589E-08
   8.74999985E-02   1.39008316E-08
   8.79999995E-02   1.33679121E-08
   8.85000005E-02   1.18538823E-08
   8.90000015E-02   9.45312184E-09
   8.95000026E-02   6.31360031E-09
   9.00000036E-02   2.62830646E-09
   9.04999971E-02  -1.37606471E-09
   9.09999982E-02  -5.45246648E-09
   9.14999992E-02  -9.34806366E-09
   9.20000002E-02  -1.28190987E-08
   9.25000012E-02  -1.56451225E-08
   9.30000022E-02  -1.76416943E-08
   9.35000032E-02  -1.86707592E-08
   9.39999968E-02  -1.86480609E-08
   9.44999978E-02  -1.75471300E-08
   9.49999988E-02  -1.53996265E-08
   9.54999998E-02  -1.22920598E-08
   9.60000008E-02  -8.35913028E-09
   9.65000018E-02  -3.77417697E-09
   9.70000029E-02   1.26259103E-09
   9.74999964E-02   6.53729115E-09
   9.79999974E-02   1.18360521E-08
   9.84999985E-02   1.69582801E-08
   9.89999995E-02   2.17286011E-08
   9.95000005E-02   2.60066866E-08
  0.100000001       2.96943057E-08
  0.100500003       3.27391909E-08
  0.101000004       3.51354927E-08
  0.101499997       3.69208486E-08
  0.101999998       3.81703842E-08
  0.102499999       3.89880945E-08
  0.103000000       3.94963990E-08
  0.103500001       3.98245916E-08
  0.104000002       4.00972162E-08
  0.104500003       4.04232203E-08
  0.104999997       4.08868175E-08
  0.105499998       4.15407513E-08
  0.105999999       4.24025934E-08
  0.106500000       4.34543850E-08
  0.107000001       4.46457413E-08
  0.107500002       4.59001974E-08
  0.108000003       4.71244199E-08
  0.108499996       4.82195581E-08
  0.108999997       4.90938667E-08
  0.109499998       4.96756378E-08
  0.109999999       4.99253652E-08
  0.110500000       4.98460864E-08
  0.111000001       4.94909322E-08
  0.111500002       4.89671450E-08
  0.112000003       4.84360108E-08
  0.112499997       4.81084079E-08
  0.112999998       4.82359823E-08
  0.113499999       4.90984426E-08
  0.114000000       5.09875271E-08
  0.114500001       5.41886358E-08
  0.115000002       5.89614260E-08
  0.115500003       6.55205028E-08
  0.115999997       7.40177413E-08
  0.116499998       8.45276276E-08
  0.116999999       9.70366614E-08
  0.117500000       1.11438105E-07
  0.118000001       1.27532616E-07
  0.118500002       1.45035159E-07
  0.119000003       1.63588211E-07
  0.119499996       1.82780738E-07
  0.119999997       2.02171989E-07
  0.120499998       2.21319155E-07
  0.120999999       2.39807036E-07
  0.121500000       2.57278145E-07
  0.122000001       2.73461126E-07
  0.122500002       2.88195906E-07
  0.123000003       3.01453667E-07
  0.123499997       3.13350085E-07
  0.123999998       3.24150790E-07
  0.124499999       3.34268151E-07
  0.125000000       3.44249202E-07
  0.125499994       3.54755031E-07
  0.126000002       3.66532390E-07
  0.126499996       3.80378992E-07
  0.127000004       3.97104287E-07
  0.127499998       4.17487655E-07
  0.128000006       4.42236512E-07
  0.128500000       4.71947118E-07
  0.128999993       5.07069842E-07
  0.129500002       5.47882053E-07
  0.129999995       5.94470009E-07
  0.130500004       6.46720878E-07
  0.130999997       7.04327022E-07
  0.131500006       7.66801520E-07
  0.131999999       8.33505226E-07
  0.132499993       9.03684452E-07
  0.133000001       9.76517185E-07
  0.133499995       1.05116567E-06
  0.134000003       1.12683233E-06
  0.134499997       1.20281743E-06
  0.135000005       1.27857254E-06
  0.135499999       1.35375058E-06
  0.136000007       1.42824626E-06
  0.136500001       1.50222502E-06
  0.136999995       1.57614090E-06
  0.137500003       1.65073811E-06
  0.137999997       1.72703903E-06
  0.138500005       1.80631673E-06
  0.138999999       1.89005607E-06
  0.139500007       1.97990062E-06
  0.140000001       2.07759103E-06
  0.140499994       2.18489822E-06
  0.141000003       2.30355295E-06
  0.141499996       2.43517707E-06
  0.142000005       2.58121986E-06
  0.142499998       2.74290232E-06
  0.143000007       2.92117352E-06
  0.143500000       3.11668146E-06
  0.143999994       3.32975878E-06
  0.144500002       3.56042824E-06
  0.144999996       3.80842380E-06
  0.145500004       4.07322932E-06
  0.145999998       4.35413358E-06
  0.146500006       4.65029552E-06
  0.147000000       4.96082112E-06
  0.147499993       5.28484452E-06
  0.148000002       5.62161267E-06
  0.148499995       5.97056942E-06
  0.149000004       6.33142599E-06
  0.149499997       6.70422833E-06
  0.150000006       7.08940479E-06
  0.150500000       7.48780076E-06
  0.150999993       7.90069225E-06
  0.151500002       8.32978731E-06
  0.151999995       8.77719231E-06
  0.152500004       9.24538381E-06
  0.152999997       9.73714305E-06
  0.153500006       1.02554895E-05
  0.153999999       1.08036029E-05
  0.154499993       1.13847373E-05
  0.155000001       1.20021414E-05
  0.155499995       1.26589766E-05
  0.156000003       1.33582444E-05
  0.156499997       1.41027331E-05
  0.157000005       1.48949721E-05
  0.157499999       1.57372069E-05
  0.158000007       1.66313948E-05
  0.158500001       1.75792211E-05
  0.158999994       1.85821373E-05
  0.159500003       1.96414057E-05
  0.159999996       2.07581797E-05
  0.160500005       2.19335743E-05
  0.160999998       2.31687591E-05
  0.161500007       2.44650437E-05
  0.162000000       2.58239706E-05
  0.162499994       2.72474026E-05
  0.163000003       2.87375988E-05
  0.163499996       3.02972585E-05
  0.164000005       3.19295832E-05
  0.164499998       3.36383018E-05
  0.165000007       3.54276417E-05
  0.165500000       3.73023686E-05
  0.165999994       3.92677102E-05
  0.166500002       4.13293274E-05
  0.166999996       4.34932444E-05
  0.167500004       4.57657879E-05
  0.167999998       4.81535026E-05
  0.168500006       5.06630931E-05
  0.169000000       5.33013226E-05
  0.169499993       5.60749868E-05
  0.170000002       5.89908595E-05
  0.170499995       6.20556384E-05
  0.171000004       6.52759627E-05
  0.171499997       6.86583880E-05
  0.172000006       7.22094192E-05
  0.172499999       7.59355898E-05
  0.172999993       7.98434630E-05
  0.173500001       8.39397399E-05
  0.173999995       8.82313325E-05
  0.174500003       9.27254296E-05
  0.174999997       9.74296127E-05
  0.175500005       1.02351929E-04
  0.175999999       1.07500971E-04
  0.176499993       1.12885951E-04
  0.177000001       1.18516749E-04
  0.177499995       1.24403945E-04
  0.178000003       1.30558867E-04
  0.178499997       1.36993564E-04
  0.179000005       1.43720754E-04
  0.179499999       1.50753884E-04
  0.180000007       1.58107054E-04
  0.180500001       1.65794918E-04
  0.180999994       1.73832712E-04
  0.181500003       1.82236123E-04
  0.181999996       1.91021347E-04
  0.182500005       2.00204886E-04
  0.182999998       2.09803708E-04
  0.183500007       2.19834983E-04
  0.184000000       2.30316306E-04
  0.184499994       2.41265501E-04
  0.185000002       2.52700876E-04
  0.185499996       2.64641043E-04
  0.186000004       2.77105224E-04
  0.186499998       2.90113036E-04
  0.187000006       3.03684792E-04
  0.187500000       3.17841419E-04
  0.187999994       3.32604686E-04
  0.188500002       3.47997120E-04
  0.188999996       3.64042207E-04
  0.189500004       3.80764395E-04
  0.189999998       3.98189266E-04
  0.190500006       4.16343362E-04
  0.191000000       4.35254275E-04
  0.191499993       4.54950845E-04
  0.192000002       4.75463079E-04
  0.192499995       4.96822060E-04
  0.193000004       5.19059831E-04
  0.193499997       5.42209658E-04
  0.194000006       5.66305884E-04
  0.194499999       5.91383723E-04
  0.194999993       6.17479382E-04
  0.195500001       6.44630229E-04
  0.195999995       6.72874448E-04
  0.196500003       7.02251215E-04
  0.196999997       7.32800516E-04
  0.197500005       7.64563680E-04
  0.197999999       7.97582674E-04
  0.198500007       8.31900456E-04
  0.199000001       8.67561204E-04
  0.199499995       9.04610439E-04
  0.200000003       9.43094667E-04
  0.200499997       9.83061618E-04
  0.201000005       1.02456042E-03
  0.201499999       1.06764166E-03
  0.202000007       1.11235701E-03
  0.202500001       1.15876005E-03
  0.202999994       1.20690558E-03
  0.203500003       1.25685008E-03
  0.203999996       1.30865164E-03
  0.204500005       1.36236975E-03
  0.204999998       1.41806516E-03
  0.205500007       1.47580076E-03
  0.206000000       1.53564091E-03
  0.206499994       1.59765151E-03
  0.207000002       1.66190008E-03
  0.207499996       1.72845577E-03
  0.208000004       1.79738912E-03
  0.208499998       1.86877232E-03
  0.209000006       1.94267917E-03
  0.209500000       2.01918511E-03
  0.209999993       2.09836615E-03
  0.210500002       2.18030065E-03
  0.210999995       2.26506847E-03
  0.211500004       2.35275086E-03
  0.211999997       2.44343001E-03
  0.212500006       2.53719115E-03
  0.213000000       2.63411994E-03
  0.213499993       2.73430417E-03
  0.214000002       2.83783348E-03
  0.214499995       2.94479821E-03
  0.215000004       3.05529125E-03
  0.215499997       3.16940644E-03
  0.216000006       3.28723947E-03
  0.216499999       3.40888789E-03
  0.216999993       3.53445136E-03
  0.217500001       3.66402953E-03
  0.217999995       3.79772461E-03
  0.218500003       3.93563975E-03
  0.218999997       4.07787878E-03
  0.219500005       4.22454812E-03
  0.219999999       4.37575718E-03
  0.220500007       4.53161355E-03
  0.221000001       4.69222851E-03
  0.221499994       4.85771196E-03
  0.222000003       5.02817798E-03
  0.222499996       5.20374021E-03
  0.223000005       5.38451457E-03
  0.223499998       5.57061611E-03
  0.224000007       5.76216122E-03
  0.224500000       5.95926633E-03
  0.224999994       6.16204971E-03
  0.225500003       6.37062965E-03
  0.225999996       6.58512674E-03
  0.226500005       6.80566020E-03
  0.226999998       7.03235017E-03
  0.227500007       7.26531679E-03
  0.228000000       7.50468159E-03
  0.228499994       7.75056658E-03
  0.229000002       8.00309051E-03
  0.229499996       8.26237351E-03
  0.230000004       8.52853805E-03
  0.230499998       8.80170427E-03
  0.231000006       9.08199511E-03
  0.231500000       9.36952978E-03
  0.231999993       9.66442749E-03
  0.232500002       9.96680837E-03
  0.232999995       1.02767898E-02
  0.233500004       1.05944891E-02
  0.233999997       1.09200235E-02
  0.234500006       1.12535078E-02
  0.234999999       1.15950564E-02
  0.235499993       1.19447792E-02
  0.236000001       1.23027833E-02
  0.236499995       1.26691731E-02
  0.237000003       1.30440518E-02
  0.237499997       1.34275174E-02
  0.238000005       1.38196666E-02
  0.238499999       1.42205916E-02
  0.238999993       1.46303801E-02
  0.239500001       1.50491195E-02
  0.239999995       1.54768880E-02
  0.240500003       1.59137584E-02
  0.240999997       1.63598042E-02
  0.241500005       1.68150887E-02
  0.241999999       1.72796752E-02
  0.242500007       1.77536234E-02
  0.243000001       1.82369836E-02
  0.243499994       1.87298041E-02
  0.244000003       1.92321297E-02
  0.244499996       1.97439939E-02
  0.245000005       2.02654283E-02
  0.245499998       2.07964648E-02
  0.246000007       2.13371236E-02
  0.246500000       2.18874160E-02
  0.246999994       2.24473495E-02
  0.247500002       2.30169203E-02
  0.247999996       2.35961154E-02
  0.248500004       2.41849124E-02
  0.248999998       2.47832853E-02
  0.249500006       2.53911931E-02
  0.250000000       2.60085743E-02
  0.250499994       2.66353693E-02
  0.250999987       2.72714980E-02
  0.251500010       2.79168691E-02
  0.252000004       2.85713822E-02
  0.252499998       2.92349197E-02
  0.252999991       2.99073569E-02
  0.253500015       3.05885561E-02
  0.254000008       3.12783569E-02
  0.254500002       3.19765955E-02
  0.254999995       3.26830894E-02
  0.255499989       3.33976597E-02
  0.256000012       3.41200940E-02
  0.256500006       3.48501801E-02
  0.256999999       3.55876833E-02
  0.257499993       3.63323651E-02
  0.257999986       3.70839648E-02
  0.258500010       3.78422216E-02
  0.259000003       3.86068486E-02
  0.259499997       3.93775515E-02
  0.259999990       4.01540063E-02
  0.260500014       4.09358926E-02
  0.261000007       4.17228527E-02
  0.261500001       4.25145291E-02
  0.261999995       4.33105268E-02
  0.262499988       4.41104323E-02
  0.263000011       4.49138097E-02
  0.263500005       4.57201898E-02
  0.263999999       4.65290993E-02
  0.264499992       4.73400429E-02
  0.264999986       4.81524765E-02
  0.265500009       4.89658676E-02
  0.266000003       4.97796461E-02
  0.266499996       5.05932197E-02
  0.266999990       5.14059961E-02
  0.267500013       5.22173420E-02
  0.268000007       5.30266315E-02
  0.268500000       5.38332015E-02
  0.268999994       5.46363592E-02
  0.269499987       5.54354228E-02
  0.270000011       5.62296733E-02
  0.270500004       5.70183881E-02
  0.270999998       5.78008220E-02
  0.271499991       5.85762039E-02
  0.272000015       5.93437664E-02
  0.272500008       6.01026975E-02
  0.273000002       6.08521961E-02
  0.273499995       6.15914129E-02
  0.273999989       6.23194650E-02
  0.274500012       6.30354434E-02
  0.275000006       6.37384057E-02
  0.275500000       6.44274205E-02
  0.275999993       6.51015043E-02
  0.276499987       6.57596439E-02
  0.277000010       6.64008409E-02
  0.277500004       6.70240447E-02
  0.277999997       6.76281899E-02
  0.278499991       6.82121962E-02
  0.279000014       6.87749535E-02
  0.279500008       6.93153590E-02
  0.280000001       6.98322803E-02
  0.280499995       7.03245848E-02
  0.280999988       7.07911029E-02
  0.281500012       7.12306499E-02
  0.282000005       7.16420561E-02
  0.282499999       7.20240921E-02
  0.282999992       7.23755732E-02
  0.283499986       7.26953000E-02
  0.284000009       7.29820803E-02
  0.284500003       7.32346475E-02
  0.284999996       7.34517723E-02
  0.285499990       7.36322105E-02
  0.286000013       7.37747177E-02
  0.286500007       7.38780573E-02
  0.287000000       7.39409551E-02
  0.287499994       7.39621297E-02
  0.287999988       7.39402846E-02
  0.288500011       7.38741457E-02
  0.289000005       7.37624243E-02
  0.289499998       7.36038536E-02
  0.289999992       7.33971447E-02
  0.290499985       7.31410086E-02
  0.291000009       7.28341341E-02
  0.291500002       7.24752620E-02
  0.291999996       7.20631108E-02
  0.292499989       7.15963840E-02
  0.293000013       7.10738525E-02
  0.293500006       7.04942346E-02
  0.294000000       6.98562786E-02
  0.294499993       6.91587552E-02
  0.294999987       6.84004799E-02
  0.295500010       6.75802454E-02
  0.296000004       6.66969195E-02
  0.296499997       6.57493696E-02
  0.296999991       6.47364706E-02
  0.297500014       6.36571720E-02
  0.298000008       6.25104085E-02
  0.298500001       6.12951294E-02
  0.298999995       6.00103587E-02
  0.299499989       5.86551502E-02
  0.300000012       5.72285838E-02
  0.300500005       5.57297952E-02
  0.300999999       5.41579165E-02
  0.301499993       5.25120720E-02
  0.301999986       5.07914983E-02
  0.302500010       4.89954539E-02
  0.303000003       4.71232720E-02
  0.303499997       4.51743305E-02
  0.303999990       4.31480147E-02
  0.304500014       4.10437509E-02
  0.305000007       3.88610698E-02
  0.305500001       3.65995839E-02
  0.305999994       3.42589244E-02
  0.306499988       3.18387784E-02
  0.307000011       2.93389037E-02
  0.307500005       2.67591048E-02
  0.307999998       2.40992904E-02
  0.308499992       2.13594269E-02
  0.308999985       1.85395181E-02
  0.309500009       1.56396609E-02
  0.310000002       1.26600424E-02
  0.310499996       9.60092433E-03
  0.310999990       6.46260707E-03
  0.311500013       3.24547756E-03
  0.312000006      -5.00374808E-05
  0.312500000      -3.42341862E-03
  0.312999994      -6.87403372E-03
  0.313499987      -1.04012145E-02
  0.314000010      -1.40041290E-02
  0.314500004      -1.76818408E-02
  0.314999998      -2.14334596E-02
  0.315499991      -2.52579302E-02
  0.316000015      -2.91540697E-02
  0.316500008      -3.31206769E-02
  0.317000002      -3.71564142E-02
  0.317499995      -4.12598476E-02
  0.317999989      -4.54294570E-02
  0.318500012      -4.96635959E-02
  0.319000006      -5.39605618E-02
  0.319499999      -5.83184846E-02
  0.319999993      -6.27354383E-02
  0.320499986      -6.72094300E-02
  0.321000010      -7.17383474E-02
  0.321500003      -7.63199478E-02
  0.321999997      -8.09519291E-02
  0.322499990      -8.56318325E-02
  0.323000014      -9.03571248E-02
  0.323500007      -9.51251909E-02
  0.324000001      -9.99333560E-02
  0.324499995     -0.104778849    
  0.324999988     -0.109658830    
  0.325500011     -0.114570342    
  0.326000005     -0.119510338    
  0.326499999     -0.124475710    
  0.326999992     -0.129463285    
  0.327499986     -0.134469748    
  0.328000009     -0.139491722    
  0.328500003     -0.144525707    
  0.328999996     -0.149568141    
  0.329499990     -0.154615402    
  0.330000013     -0.159663752    
  0.330500007     -0.164709345    
  0.331000000     -0.169748276    
  0.331499994     -0.174776584    
  0.331999987     -0.179790184    
  0.332500011     -0.184784934    
  0.333000004     -0.189756647    
  0.333499998     -0.194700956    
  0.333999991     -0.199613541    
  0.334500015     -0.204490021    
  0.335000008     -0.209325925    
  0.335500002     -0.214116782    
  0.335999995     -0.218858033    
  0.336499989     -0.223545134    
  0.337000012     -0.228173524    
  0.337500006     -0.232738540    
  0.338000000     -0.237235531    
  0.338499993     -0.241659924    
  0.338999987     -0.246007070    
  0.339500010     -0.250272304    
  0.340000004     -0.254450917    
  0.340499997     -0.258538246    
  0.340999991     -0.262529582    
  0.341500014     -0.266420215    
  0.342000008     -0.270205498    
  0.342500001     -0.273880661    
  0.342999995     -0.277441084    
  0.343499988     -0.280882001    
  0.344000012     -0.284198672    
  0.344500005     -0.287386477    
  0.344999999     -0.290440798    
  0.345499992     -0.293357074    
  0.345999986     -0.296130747    
  0.346500009     -0.298757315    
  0.347000003     -0.301232398    
  0.347499996     -0.303551584    
  0.347999990     -0.305710614    
  0.348500013     -0.307705373    
  0.349000007     -0.309531689    
  0.349500000     -0.311185658    
  0.349999994     -0.312663287    
  0.350499988     -0.313960940    
  0.351000011     -0.315074980    
  0.351500005     -0.316001862    
  0.351999998     -0.316738129    
  0.352499992     -0.317280501    
  0.352999985     -0.317625850    
  0.353500009     -0.317771137    
  0.354000002     -0.317713439    
  0.354499996     -0.317450047    
  0.354999989     -0.316978246    
  0.355500013     -0.316295564    
  0.356000006     -0.315399677    
  0.356500000     -0.314288378    
  0.356999993     -0.312959552    
  0.357499987     -0.311411351    
  0.358000010     -0.309642136    
  0.358500004     -0.307650357    
  0.358999997     -0.305434763    
  0.359499991     -0.302994281    
  0.360000014     -0.300327927    
  0.360500008     -0.297435015    
  0.361000001     -0.294315010    
  0.361499995     -0.290967673    
  0.361999989     -0.287392944    
  0.362500012     -0.283590972    
  0.363000005     -0.279562145    
  0.363499999     -0.275307059    
  0.363999993     -0.270826578    
  0.364499986     -0.266121715    
  0.365000010     -0.261193722    
  0.365500003     -0.256044030    
  0.365999997     -0.250674427    
  0.366499990     -0.245086893    
  0.367000014     -0.239283502    
  0.367500007     -0.233266637    
  0.368000001     -0.227038950    
  0.368499994     -0.220603257    
  0.368999988     -0.213962644    
  0.369500011     -0.207120389    
  0.370000005     -0.200079933    
  0.370499998     -0.192845106    
  0.370999992     -0.185419962    
  0.371499985     -0.177808762    
  0.372000009     -0.170015916    
  0.372500002     -0.162046045    
  0.372999996     -0.153904006    
  0.373499990     -0.145594865    
  0.374000013     -0.137123987    
  0.374500006     -0.128496930    
  0.375000000     -0.119719476    
  0.375499994     -0.110797510    
  0.375999987     -0.101737142    
  0.376500010      -9.25447717E-02
  0.377000004      -8.32269862E-02
  0.377499998      -7.37904534E-02
  0.377999991      -6.42420799E-02
  0.378500015      -5.45888804E-02
  0.379000008      -4.48380299E-02
  0.379500002      -3.49969640E-02
  0.379999995      -2.50732042E-02
  0.380499989      -1.50744608E-02
  0.381000012      -5.00853313E-03
  0.381500006       5.11654140E-03
  0.381999999       1.52925625E-02
  0.382499993       2.55112834E-02
  0.382999986       3.57643515E-02
  0.383500010       4.60433662E-02
  0.384000003       5.63396886E-02
  0.384499997       6.66446239E-02
  0.384999990       7.69494846E-02
  0.385500014       8.72455314E-02
  0.386000007       9.75239873E-02
  0.386500001      0.107775979    
  0.386999995      0.117992595    
  0.387499988      0.128164917    
  0.388000011      0.138283998    
  0.388500005      0.148340791    
  0.388999999      0.158326119    
  0.389499992      0.168231130    
  0.389999986      0.178046882    
  0.390500009      0.187764287    
  0.391000003      0.197374269    
  0.391499996      0.206867859    
  0.391999990      0.216236085    
  0.392500013      0.225470066    
  0.393000007      0.234561116    
  0.393500000      0.243500516    
  0.393999994      0.252279639    
  0.394499987      0.260889977    
  0.395000011      0.269323289    
  0.395500004      0.277571321    
  0.395999998      0.285626024    
  0.396499991      0.293479532    
  0.397000015      0.301124215    
  0.397500008      0.308552474    
  0.398000002      0.315756977    
  0.398499995      0.322730541    
  0.398999989      0.329466224    
  0.399500012      0.335957319    
  0.400000006      0.342197210    
  0.400500000      0.348179609    
  0.400999993      0.353898317    
  0.401499987      0.359347314    
  0.402000010      0.364520848    
  0.402500004      0.369413406    
  0.402999997      0.374019951    
  0.403499991      0.378335297    
  0.404000014      0.382354617    
  0.404500008      0.386073500    
  0.405000001      0.389487803    
  0.405499995      0.392593563    
  0.405999988      0.395387203    
  0.406500012      0.397865534    
  0.407000005      0.400025606    
  0.407499999      0.401864797    
  0.407999992      0.403380781    
  0.408499986      0.404571682    
  0.409000009      0.405436158    
  0.409500003      0.405972928    
  0.409999996      0.406181246    
  0.410499990      0.406060547    
  0.411000013      0.405610561    
  0.411500007      0.404831499    
  0.412000000      0.403724015    
  0.412499994      0.402289003    
  0.412999988      0.400527477    
  0.413500011      0.398440927    
  0.414000005      0.396031141    
  0.414499998      0.393300235    
  0.414999992      0.390250504    
  0.415499985      0.386884660    
  0.416000009      0.383205712    
  0.416500002      0.379216880    
  0.416999996      0.374921769    
  0.417499989      0.370324284    
  0.418000013      0.365428686    
  0.418500006      0.360239536    
  0.419000000      0.354761720    
  0.419499993      0.349000543    
  0.419999987      0.342961580    
  0.420500010      0.336650640    
  0.421000004      0.330073923    
  0.421499997      0.323238045    
  0.421999991      0.316149920    
  0.422500014      0.308816612    
  0.423000008      0.301245481    
  0.423500001      0.293444306    
  0.423999995      0.285421133    
  0.424499989      0.277184129    
  0.425000012      0.268741608    
  0.425500005      0.260102212    
  0.425999999      0.251274705    
  0.426499993      0.242268011    
  0.426999986      0.233091235    
  0.427500010      0.223753586    
  0.428000003      0.214264348    