   0.00000000       0.00000000    
   5.00000024E-04   0.00000000    
   1.00000005E-03   0.00000000    
   1.50000001E-03   0.00000000    
   2.00000009E-03   0.00000000    
   2.49999994E-03   0.00000000    
   3.00000003E-03   0.00000000    
   3.50000011E-03   0.00000000    
   4.00000019E-03   0.00000000    
   4.49999981E-03   0.00000000    
   4.99999989E-03   2.07687665E-38
   5.49999997E-03   2.04410277E-37
   6.00000005E-03   1.18551769E-36
   6.50000013E-03   4.72860754E-36
   7.00000022E-03   1.18347148E-35
   7.49999983E-03   1.61661360E-36
   8.00000038E-03  -1.76315325E-34
   8.50000046E-03  -1.21590987E-33
   8.99999961E-03  -5.69659403E-33
   9.49999969E-03  -2.19237425E-32
   9.99999978E-03  -7.38915514E-32
   1.04999999E-02  -2.25104911E-31
   1.09999999E-02  -6.31690399E-31
   1.15000000E-02  -1.65374583E-30
   1.20000001E-02  -4.07627474E-30
   1.25000002E-02  -9.52608209E-30
   1.30000003E-02  -2.12227278E-29
   1.35000004E-02  -4.52735484E-29
   1.40000004E-02  -9.28158844E-29
   1.44999996E-02  -1.83421054E-28
   1.49999997E-02  -3.50291942E-28
   1.54999997E-02  -6.47886589E-28
   1.60000008E-02  -1.16264260E-27
   1.64999999E-02  -2.02739622E-27
   1.70000009E-02  -3.43980641E-27
   1.75000001E-02  -5.68447468E-27
   1.79999992E-02  -9.15737934E-27
   1.85000002E-02  -1.43895548E-26
   1.89999994E-02  -2.20644611E-26
   1.95000004E-02  -3.30202014E-26
   1.99999996E-02  -4.82234369E-26
   2.05000006E-02  -6.86966824E-26
   2.09999997E-02  -9.53750707E-26
   2.15000007E-02  -1.28862808E-25
   2.19999999E-02  -1.69054531E-25
   2.25000009E-02  -2.14583478E-25
   2.30000000E-02  -2.62059124E-25
   2.34999992E-02  -3.05062545E-25
   2.40000002E-02  -3.32880665E-25
   2.44999994E-02  -3.28985270E-25
   2.50000004E-02  -2.69296627E-25
   2.54999995E-02  -1.20323980E-25
   2.60000005E-02   1.62662749E-25
   2.64999997E-02   6.37192930E-25
   2.70000007E-02   1.37455985E-24
   2.74999999E-02   2.45976060E-24
   2.80000009E-02   3.98988333E-24
   2.85000000E-02   6.07032332E-24
   2.89999992E-02   8.80814398E-24
   2.95000002E-02   1.23018827E-23
   2.99999993E-02   1.66271416E-23
   3.05000003E-02   2.18174188E-23
   3.09999995E-02   2.78399142E-23
   3.15000005E-02   3.45663639E-23
   3.20000015E-02   4.17394793E-23
   3.24999988E-02   4.89361879E-23
   3.29999998E-02   5.55298124E-23
   3.35000008E-02   6.06540256E-23
   3.40000018E-02   6.31725303E-23
   3.44999991E-02   6.16595961E-23
   3.50000001E-02   5.43970649E-23
   3.55000012E-02   3.93948206E-23
   3.59999985E-02   1.44416797E-23
   3.64999995E-02  -2.28058978E-23
   3.70000005E-02  -7.46907894E-23
   3.75000015E-02  -1.43372377E-22
   3.79999988E-02  -2.30590783E-22
   3.84999998E-02  -3.37377836E-22
   3.90000008E-02  -4.63718996E-22
   3.95000018E-02  -6.08175205E-22
   3.99999991E-02  -7.67479973E-22
   4.05000001E-02  -9.36132881E-22
   4.10000011E-02  -1.10601873E-21
   4.14999984E-02  -1.26608747E-21
   4.19999994E-02  -1.40213829E-21
   4.25000004E-02  -1.49675212E-21
   4.30000015E-02  -1.52942676E-21
   4.34999987E-02  -1.47696006E-21
   4.39999998E-02  -1.31413362E-21
   4.45000008E-02  -1.01473301E-21
   4.50000018E-02  -5.52933939E-22
   4.54999991E-02   9.49328782E-23
   4.60000001E-02   9.48254328E-22
   4.65000011E-02   2.01967860E-21
   4.69999984E-02   3.31240397E-21
   4.74999994E-02   4.81731531E-21
   4.80000004E-02   6.51010812E-21
   4.85000014E-02   8.34858367E-21
   4.89999987E-02   1.02703125E-20
   4.94999997E-02   1.21909127E-20
   5.00000007E-02   1.40031903E-20
   5.05000018E-02   1.55774233E-20
   5.09999990E-02   1.67629912E-20
   5.15000001E-02   1.73916517E-20
   5.20000011E-02   1.72825721E-20
   5.24999984E-02   1.62492733E-20
   5.29999994E-02   1.41085169E-20
   5.35000004E-02   1.06910202E-20
   5.40000014E-02   5.85383805E-21
   5.44999987E-02  -5.05941104E-22
   5.49999997E-02  -8.43669214E-21
   5.55000007E-02  -1.79175237E-20
   5.60000017E-02  -2.88441369E-20
   5.64999990E-02  -4.10161223E-20
   5.70000000E-02  -5.41266539E-20
   5.75000010E-02  -6.77556435E-20
   5.79999983E-02  -8.13673916E-20
   5.84999993E-02  -9.43136536E-20
   5.90000004E-02  -1.05843007E-19
   5.95000014E-02  -1.15117227E-19
   5.99999987E-02  -1.21235106E-19
   6.04999997E-02  -1.23263779E-19
   6.10000007E-02  -1.20277334E-19
   6.15000017E-02  -1.11402074E-19
   6.19999990E-02  -9.58671375E-20
   6.25000000E-02  -7.30591702E-20
   6.30000010E-02  -4.25786470E-20
   6.35000020E-02  -4.29575410E-21
   6.40000030E-02   4.15972748E-20
   6.44999966E-02   9.45402106E-20
   6.49999976E-02   1.53568640E-19
   6.54999986E-02   2.17290550E-19
   6.59999996E-02   2.83878848E-19
   6.65000007E-02   3.51082284E-19
   6.70000017E-02   4.16257498E-19
   6.75000027E-02   4.76422532E-19
   6.80000037E-02   5.28333751E-19
   6.84999973E-02   5.68584773E-19
   6.89999983E-02   5.93725997E-19
   6.94999993E-02   6.00402844E-19
   7.00000003E-02   5.85508009E-19
   7.05000013E-02   5.46343075E-19
   7.10000023E-02   4.80783066E-19
   7.15000033E-02   3.87438578E-19
   7.19999969E-02   2.65806140E-19
   7.24999979E-02   1.16400778E-19
   7.29999989E-02  -5.91387544E-20
   7.34999999E-02  -2.57977109E-19
   7.40000010E-02  -4.76050714E-19
   7.45000020E-02  -7.08081442E-19
   7.50000030E-02  -9.47639616E-19
   7.54999965E-02  -1.18725947E-18
   7.59999976E-02  -1.41860565E-18
   7.64999986E-02  -1.63269095E-18
   7.69999996E-02  -1.82013753E-18
   7.75000006E-02  -1.97147746E-18
   7.80000016E-02  -2.07748582E-18
   7.85000026E-02  -2.12952686E-18
   7.90000036E-02  -2.11991398E-18
   7.94999972E-02  -2.04225723E-18
   7.99999982E-02  -1.89179535E-18
   8.04999992E-02  -1.66569070E-18
   8.10000002E-02  -1.36327688E-18
   8.15000013E-02  -9.86249926E-19
   8.20000023E-02  -5.38789107E-19
   8.25000033E-02  -2.76006034E-20
   8.29999968E-02   5.38117643E-19
   8.34999979E-02   1.14679410E-18
   8.39999989E-02   1.78468332E-18
   8.44999999E-02   2.43613893E-18
   8.50000009E-02   3.08395721E-18
   8.55000019E-02   3.70977353E-18
   8.60000029E-02   4.29450915E-18
   8.64999965E-02   4.81884116E-18
   8.69999975E-02   5.26369145E-18
   8.74999985E-02   5.61071936E-18
   8.79999995E-02   5.84279605E-18
   8.85000005E-02   5.94445903E-18
   8.90000015E-02   5.90232617E-18
   8.95000026E-02   5.70548076E-18
   9.00000036E-02   5.34579616E-18
   9.04999971E-02   4.81822781E-18
   9.09999982E-02   4.12105931E-18
   9.14999992E-02   3.25610921E-18
   9.20000002E-02   2.22890578E-18
   9.25000012E-02   1.04883999E-18
   9.30000022E-02  -2.70701214E-19
   9.35000032E-02  -1.71221651E-18
   9.39999968E-02  -3.25398419E-18
   9.44999978E-02  -4.86997085E-18
   9.49999988E-02  -6.52976748E-18
   9.54999998E-02  -8.19856673E-18
   9.60000008E-02  -9.83719911E-18
   9.65000018E-02  -1.14022629E-17
   9.70000029E-02  -1.28463813E-17
   9.74999964E-02  -1.41186148E-17
   9.79999974E-02  -1.51650976E-17
   9.84999985E-02  -1.59298856E-17
   9.89999995E-02  -1.63561367E-17
   9.95000005E-02  -1.63875597E-17
  0.100000001      -1.59702206E-17
  0.100500003      -1.50546971E-17
  0.101000004      -1.35985275E-17
  0.101499997      -1.15689902E-17
  0.101999998      -8.94608157E-18
  0.102499999      -5.72564577E-18
  0.103000000      -1.92254021E-18
  0.103500001       2.42632670E-18
  0.104000002       7.25923200E-18
  0.104500003       1.24873501E-17
  0.104999997       1.79931321E-17
  0.105499998       2.36295673E-17
  0.105999999       2.92205257E-17
  0.106500000       3.45624019E-17
  0.107000001       3.94271602E-17
  0.107500002       4.35670238E-17
  0.108000003       4.67207525E-17
  0.108499996       4.86216599E-17
  0.108999997       4.90072021E-17
  0.109499998       4.76300655E-17
  0.109999999       4.42705178E-17
  0.110500000       3.87496993E-17
  0.111000001       3.09433907E-17
  0.111500002       2.07958665E-17
  0.112000003       8.33313330E-18
  0.112499997      -6.32499685E-18
  0.112999998      -2.29547368E-17
  0.113499999      -4.12207492E-17
  0.114000000      -6.06718583E-17
  0.114500001      -8.07407820E-17
  0.115000002      -1.00748349E-16
  0.115500003      -1.19912853E-16
  0.115999997      -1.37364776E-16
  0.116499998      -1.52167113E-16
  0.116999999      -1.63341331E-16
  0.117500000      -1.69898424E-16
  0.118000001      -1.70875225E-16
  0.118500002      -1.65374263E-16
  0.119000003      -1.52607173E-16
  0.119499996      -1.31939503E-16
  0.119999997      -1.02936308E-16
  0.120499998      -6.54058990E-17
  0.120999999      -1.94408157E-17
  0.121500000       3.45466159E-17
  0.122000001       9.57956213E-17
  0.122500002       1.63177456E-16
  0.123000003       2.35186692E-16
  0.123499997       3.09945052E-16
  0.123999998       3.85218938E-16
  0.124499999       4.58451871E-16
  0.125000000       5.26812459E-16
  0.125499994       5.87257419E-16
  0.126000002       6.36610005E-16
  0.126499996       6.71651705E-16
  0.127000004       6.89226950E-16
  0.127499998       6.86356779E-16
  0.128000006       6.60360174E-16
  0.128500000       6.08978784E-16
  0.128999993       5.30500758E-16
  0.129500002       4.23880645E-16
  0.129999995       2.88850305E-16
  0.130500004       1.26015289E-16
  0.130999997      -6.30662748E-17
  0.131500006      -2.75828180E-16
  0.131999999      -5.08667002E-16
  0.132499993      -7.56943529E-16
  0.133000001      -1.01501694E-15
  0.133499995      -1.27631422E-15
  0.134000003      -1.53343615E-15
  0.134499997      -1.77829760E-15
  0.135000005      -2.00230478E-15
  0.135499999      -2.19656184E-15
  0.136000007      -2.35210758E-15
  0.136500001      -2.46017416E-15
  0.136999995      -2.51246532E-15
  0.137500003      -2.50144097E-15
  0.137999997      -2.42060777E-15
  0.138500005      -2.26479796E-15
  0.138999999      -2.03043962E-15
  0.139500007      -1.71579483E-15
  0.140000001      -1.32116991E-15
  0.140499994      -8.49078055E-16
  0.141000003      -3.04356620E-16
  0.141499996       3.05778100E-16
  0.142000005       9.71735149E-16
  0.142499998       1.68162213E-15
  0.143000007       2.42138704E-15
  0.143500000       3.17503143E-15
  0.143999994       3.92488810E-15
  0.144500002       4.65196763E-15
  0.144999996       5.33636135E-15
  0.145500004       5.95769390E-15
  0.145999998       6.49561658E-15
  0.146500006       6.93033294E-15
  0.147000000       7.24313967E-15
  0.147499993       7.41697116E-15
  0.148000002       7.43692471E-15
  0.148499995       7.29077172E-15
  0.149000004       6.96941758E-15
  0.149499997       6.46730704E-15
  0.150000006       5.78276212E-15
  0.150500000       4.91823836E-15
  0.150999993       3.88048536E-15
  0.151500002       2.68061321E-15
  0.151999995       1.33404862E-15
  0.152500004      -1.39615964E-16
  0.152999997      -1.71687967E-15
  0.153500006      -3.37070027E-15
  0.153999999      -5.07096179E-15
  0.154499993      -6.78502613E-15
  0.155000001      -8.47838137E-15
  0.155499995      -1.01153411E-14
  0.156000003      -1.16598058E-14
  0.156499997      -1.30760567E-14
  0.157000005      -1.43295681E-14
  0.157499999      -1.53878138E-14
  0.158000007      -1.62210502E-14
  0.158500001      -1.68030635E-14
  0.158999994      -1.71118528E-14
  0.159500003      -1.71302402E-14
  0.159999996      -1.68463774E-14
  0.160500005      -1.62541506E-14
  0.160999998      -1.53534734E-14
  0.161500007      -1.41504443E-14
  0.162000000      -1.26573641E-14
  0.162499994      -1.08926252E-14
  0.163000003      -8.88046367E-15
  0.163499996      -6.65057151E-15
  0.164000005      -4.23757751E-15
  0.164499998      -1.68041606E-15
  0.165000007       9.78425969E-16
  0.165500000       3.69375144E-15
  0.165999994       6.41857893E-15
  0.166500002       9.10513408E-15
  0.166999996       1.17058844E-14
  0.167500004       1.41746127E-14
  0.167999998       1.64674792E-14
  0.168500006       1.85440855E-14
  0.169000000       2.03684827E-14
  0.169499993       2.19101521E-14
  0.170000002       2.31448754E-14
  0.170499995       2.40555239E-14
  0.171000004       2.46327329E-14
  0.171499997       2.48754180E-14
  0.172000006       2.47911399E-14
  0.172499999       2.43963226E-14
  0.172999993       2.37162381E-14
  0.173500001       2.27848085E-14
  0.173999995       2.16442058E-14
  0.174500003       2.03442067E-14
  0.174999997       1.89413254E-14
  0.175500005       1.74977017E-14
  0.175999999       1.60797872E-14
  0.176499993       1.47567641E-14
  0.177000001       1.35987819E-14
  0.177499995       1.26749612E-14
  0.178000003       1.20512510E-14
  0.178499997       1.17880974E-14
  0.179000005       1.19380400E-14
  0.179499999       1.25431891E-14
  0.180000007       1.36327039E-14
  0.180500001       1.52202927E-14
  0.180999994       1.73017948E-14
  0.181500003       1.98529327E-14
  0.181999996       2.28273075E-14
  0.182500005       2.61546630E-14
  0.182999998       2.97395877E-14
  0.183500007       3.34606610E-14
  0.184000000       3.71701300E-14
  0.184499994       4.06942749E-14
  0.185000002       4.38343751E-14
  0.185499996       4.63685486E-14
  0.186000004       4.80542865E-14
  0.186499998       4.86318851E-14
  0.187000006       4.78287996E-14
  0.187500000       4.53647502E-14
  0.187999994       4.09577530E-14
  0.188500002       3.43309535E-14
  0.188999996       2.52201383E-14
  0.189500004       1.33819957E-14
  0.189999998      -1.39720901E-15
  0.190500006      -1.92925255E-14
  0.191000000      -4.04310002E-14
  0.191499993      -6.48823646E-14
  0.192000002      -9.26499274E-14
  0.192499995      -1.23661877E-13
  0.193000004      -1.57763369E-13
  0.193499997      -1.94709307E-13
  0.194000006      -2.34158694E-13
  0.194499999      -2.75670058E-13
  0.194999993      -3.18698762E-13
  0.195500001      -3.62596319E-13
  0.195999995      -4.06611702E-13
  0.196500003      -4.49894787E-13
  0.196999997      -4.91502889E-13
  0.197500005      -5.30408996E-13
  0.197999999      -5.65513348E-13
  0.198500007      -5.95656554E-13
  0.199000001      -6.19636991E-13
  0.199499995      -6.36228646E-13
  0.200000003      -6.44202302E-13
  0.200499997      -6.42348479E-13
  0.201000005      -6.29502201E-13
  0.201499999      -6.04568153E-13
  0.202000007      -5.66548002E-13
  0.202500001      -5.14567013E-13
  0.202999994      -4.47901563E-13
  0.203500003      -3.66004780E-13
  0.203999996      -2.68532375E-13
  0.204500005      -1.55365602E-13
  0.204999998      -2.66326691E-14
  0.205500007       1.17273053E-13
  0.206000000       2.75678216E-13
  0.206499994       4.47618261E-13
  0.207000002       6.31830525E-13
  0.207499996       8.26752078E-13
  0.208000004       1.03052246E-12
  0.208499998       1.24099093E-12
  0.209000006       1.45572985E-12
  0.209500000       1.67205258E-12
  0.209999993       1.88703653E-12
  0.210500002       2.09755152E-12
  0.210999995       2.30029299E-12
  0.211500004       2.49181773E-12
  0.211999997       2.66858714E-12
  0.212500006       2.82700838E-12
  0.213000000       2.96348428E-12
  0.213499993       3.07445931E-12
  0.214000002       3.15647378E-12
  0.214499995       3.20620852E-12
  0.215000004       3.22054124E-12
  0.215499997       3.19659230E-12
  0.216000006       3.13177305E-12
  0.216499999       3.02383097E-12
  0.216999993       2.87089276E-12
  0.217500001       2.67150017E-12
  0.217999995       2.42464555E-12
  0.218500003       2.12980068E-12
  0.218999997       1.78693995E-12
  0.219500005       1.39655887E-12
  0.219999999       9.59688275E-13
  0.220500007       4.77899838E-13
  0.221000001      -4.66904720E-14
  0.221499994      -6.11427684E-13
  0.222000003      -1.21312595E-12
  0.222499996      -1.84808267E-12
  0.223000005      -2.51209665E-12
  0.223499998      -3.20049087E-12
  0.224000007      -3.90813944E-12
  0.224500000      -4.62949557E-12
  0.224999994      -5.35862457E-12
  0.225500003      -6.08923675E-12
  0.225999996      -6.81472630E-12
  0.226500005      -7.52820202E-12
  0.226999998      -8.22253723E-12
  0.227500007      -8.89039189E-12
  0.228000000      -9.52426592E-12
  0.228499994      -1.01165326E-11
  0.229000002      -1.06594794E-11
  0.229499996      -1.11453442E-11
  0.230000004      -1.15663633E-11
  0.230499998      -1.19148051E-11
  0.231000006      -1.21830124E-11
  0.231500000      -1.23634531E-11
  0.231999993      -1.24487564E-11
  0.232500002      -1.24317640E-11
  0.232999995      -1.23055819E-11
  0.233500004      -1.20636296E-11
  0.233999997      -1.16997046E-11
  0.234500006      -1.12080345E-11
  0.234999999      -1.05833519E-11
  0.235499993      -9.82095481E-12
  0.236000001      -8.91679178E-12
  0.236499995      -7.86754342E-12
  0.237000003      -6.67069741E-12
  0.237499997      -5.32464958E-12
  0.238000005      -3.82879058E-12
  0.238499999      -2.18361310E-12
  0.238999993      -3.90800212E-13
  0.239500001       1.54666601E-12
  0.239999995       3.62440481E-12
  0.240500003       5.83653655E-12
  0.240999997       8.17558608E-12
  0.241500005       1.06323891E-11
  0.241999999       1.31960137E-11
  0.242500007       1.58536777E-11
  0.243000001       1.85906915E-11
  0.243499994       2.13903999E-11
  0.244000003       2.42341563E-11
  0.244499996       2.71013142E-11
  0.245000005       2.99692111E-11
  0.245499998       3.28132278E-11
  0.246000007       3.56068161E-11
  0.246500000       3.83215959E-11
  0.246999994       4.09274767E-11
  0.247500002       4.33927720E-11
  0.247999996       4.56843938E-11
  0.248500004       4.77680534E-11
  0.248999998       4.96085083E-11
  0.249500006       5.11698288E-11
  0.250000000       5.24156864E-11
  0.250499994       5.33097282E-11
  0.250999987       5.38158962E-11
  0.251500010       5.38988437E-11
  0.252000004       5.35243724E-11
  0.252499998       5.26598487E-11
  0.252999991       5.12746581E-11
  0.253500015       4.93406982E-11
  0.254000008       4.68328397E-11
  0.254500002       4.37294576E-11
  0.254999995       4.00128541E-11
  0.255499989       3.56697970E-11
  0.256000012       3.06919316E-11
  0.256500006       2.50762917E-11
  0.256999999       1.88256719E-11
  0.257499993       1.19490164E-11
  0.257999986       4.46179899E-12
  0.258500010      -3.61371827E-12
  0.259000003      -1.22482025E-11
  0.259499997      -2.14050808E-11
  0.259999990      -3.10404064E-11
  0.260500014      -4.11028295E-11
  0.261000007      -5.15335899E-11
  0.261500001      -6.22666502E-11
  0.261999995      -7.32288674E-11
  0.262499988      -8.43402501E-11
  0.263000011      -9.55143534E-11
  0.263500005      -1.06658730E-10
  0.263999999      -1.17675397E-10
  0.264499992      -1.28461575E-10
  0.264999986      -1.38910244E-10
  0.265500009      -1.48911050E-10
  0.266000003      -1.58351152E-10
  0.266499996      -1.67116029E-10
  0.266999990      -1.75090664E-10
  0.267500013      -1.82160398E-10
  0.268000007      -1.88212085E-10
  0.268500000      -1.93135188E-10
  0.268999994      -1.96823016E-10
  0.269499987      -1.99173719E-10
  0.270000011      -2.00091457E-10
  0.270500004      -1.99487676E-10
  0.270999998      -1.97282066E-10
  0.271499991      -1.93403599E-10
  0.272000015      -1.87791727E-10
  0.272500008      -1.80397169E-10
  0.273000002      -1.71182804E-10
  0.273499995      -1.60124539E-10
  0.273999989      -1.47211895E-10
  0.274500012      -1.32448733E-10
  0.275000006      -1.15853625E-10
  0.275500000      -9.74601927E-11
  0.275999993      -7.73174788E-11
  0.276499987      -5.54899043E-11
  0.277000010      -3.20573360E-11
  0.277500004      -7.11487683E-12
  0.277999997       1.92273194E-11
  0.278499991       4.68446081E-11
  0.279000014       7.55982707E-11
  0.279500008       1.05336240E-10
  0.280000001       1.35893796E-10
  0.280499995       1.67094491E-10
  0.280999988       1.98751113E-10
  0.281500012       2.30666805E-10
  0.282000005       2.62636080E-10
  0.282499999       2.94446106E-10
  0.282999992       3.25877880E-10
  0.283499986       3.56707858E-10
  0.284000009       3.86708637E-10
  0.284500003       4.15651097E-10
  0.284999996       4.43305337E-10
  0.285499990       4.69442152E-10
  0.286000013       4.93834418E-10
  0.286500007       5.16258536E-10
  0.287000000       5.36495848E-10
  0.287499994       5.54333524E-10
  0.287999988       5.69566783E-10
  0.288500011       5.81999171E-10
  0.289000005       5.91444504E-10
  0.289499998       5.97727756E-10
  0.289999992       6.00686223E-10
  0.290499985       6.00170746E-10
  0.291000009       5.96046656E-10
  0.291500002       5.88194993E-10
  0.291999996       5.76513393E-10
  0.292499989       5.60916757E-10
  0.293000013       5.41338641E-10
  0.293500006       5.17731802E-10
  0.294000000       4.90069041E-10
  0.294499993       4.58343835E-10
  0.294999987       4.22571117E-10
  0.295500010       3.82788079E-10
  0.296000004       3.39054756E-10
  0.296499997       2.91453972E-10
  0.296999991       2.40092363E-10
  0.297500014       1.85100879E-10
  0.298000008       1.26634286E-10
  0.298500001       6.48720799E-11
  0.298999995       1.82262737E-14
  0.299499989      -6.76989645E-11
  0.300000012      -1.38026771E-10
  0.300500005      -2.10688605E-10
  0.300999999      -2.85384300E-10
  0.301499993      -3.61790847E-10
  0.301999986      -4.39563219E-10
  0.302500010      -5.18335264E-10
  0.303000003      -5.97721095E-10
  0.303499997      -6.77316314E-10
  0.303999990      -7.56699481E-10
  0.304500014      -8.35433889E-10
  0.305000007      -9.13069842E-10
  0.305500001      -9.89146653E-10
  0.305999994      -1.06319475E-09
  0.306499988      -1.13473875E-09
  0.307000011      -1.20329957E-09
  0.307500005      -1.26839761E-09
  0.307999998      -1.32955669E-09
  0.308499992      -1.38630507E-09
  0.308999985      -1.43818091E-09
  0.309500009      -1.48473400E-09
  0.310000002      -1.52553059E-09
  0.310499996      -1.56015512E-09
  0.310999990      -1.58821489E-09
  0.311500013      -1.60934288E-09
  0.312000006      -1.62320124E-09
  0.312500000      -1.62948366E-09
  0.312999994      -1.62791980E-09
  0.313499987      -1.61827629E-09
  0.314000010      -1.60036151E-09
  0.314500004      -1.57402513E-09
  0.314999998      -1.53916313E-09
  0.315499991      -1.49571711E-09
  0.316000015      -1.44367751E-09
  0.316500008      -1.38308343E-09
  0.317000002      -1.31402456E-09
  0.317499995      -1.23664023E-09
  0.317999989      -1.15112087E-09
  0.318500012      -1.05770603E-09
  0.319000006      -9.56684842E-10
  0.319499999      -8.48394688E-10
  0.319999993      -7.33219430E-10
  0.320499986      -6.11588058E-10
  0.321000010      -4.83971363E-10
  0.321500003      -3.50881102E-10
  0.321999997      -2.12865933E-10
  0.322499990      -7.05099243E-11
  0.323000014       7.55715907E-11
  0.323500007       2.24735203E-10
  0.324000001       3.76312592E-10
  0.324499995       5.29613686E-10
  0.324999988       6.83930801E-10
  0.325500011       8.38541458E-10
  0.326000005       9.92711358E-10
  0.326499999       1.14569865E-09
  0.326999992       1.29675704E-09
  0.327499986       1.44513823E-09
  0.328000009       1.59009317E-09
  0.328500003       1.73087711E-09
  0.328999996       1.86674964E-09
  0.329499990       1.99697836E-09
  0.330000013       2.12083862E-09
  0.330500007       2.23761543E-09
  0.331000000       2.34660447E-09
  0.331499994       2.44711251E-09
  0.331999987       2.53845611E-09
  0.332500011       2.61996358E-09
  0.333000004       2.69097233E-09
  0.333499998       2.75082956E-09
  0.333999991       2.79889067E-09
  0.334500015       2.83451795E-09
  0.335000008       2.85707680E-09
  0.335500002       2.86593860E-09
  0.335999995       2.86047386E-09
  0.336499989       2.84005397E-09
  0.337000012       2.80404699E-09
  0.337500006       2.75181544E-09
  0.338000000       2.68271982E-09
  0.338499993       2.59610755E-09
  0.338999987       2.49131760E-09
  0.339500010       2.36768050E-09
  0.340000004       2.22451235E-09
  0.340499997       2.06111594E-09
  0.340999991       1.87678051E-09
  0.341500014       1.67078162E-09
  0.342000008       1.44238166E-09
  0.342500001       1.19083121E-09
  0.342999995       9.15368281E-10
  0.343499988       6.15219375E-10
  0.344000012       2.89603203E-10
  0.344500005      -6.22691898E-11
  0.344999999      -4.41187337E-10
  0.345499992      -8.47943882E-10
  0.345999986      -1.28333344E-09
  0.346500009      -1.74814219E-09
  0.347000003      -2.24314656E-09
  0.347499996      -2.76911050E-09
  0.347999990      -3.32678440E-09
  0.348500013      -3.91689570E-09
  0.349000007      -4.54015003E-09
  0.349500000      -5.19722487E-09
  0.349999994      -5.88876503E-09
  0.350499988      -6.61538246E-09
  0.351000011      -7.37765360E-09
  0.351500005      -8.17611578E-09
  0.351999998      -9.01126285E-09
  0.352499992      -9.88354820E-09
  0.352999985      -1.07933769E-08
  0.353500009      -1.17411112E-08
  0.354000002      -1.27270718E-08
  0.354499996      -1.37515297E-08
  0.354999989      -1.48147210E-08
  0.355500013      -1.59168323E-08
  0.356000006      -1.70580243E-08
  0.356500000      -1.82384188E-08
  0.356999993      -1.94581045E-08
  0.357499987      -2.07171524E-08
  0.358000010      -2.20155965E-08
  0.358500004      -2.33534827E-08
  0.358999997      -2.47308325E-08
  0.359499991      -2.61476654E-08
  0.360000014      -2.76040133E-08
  0.360500008      -2.90999278E-08
  0.361000001      -3.06354764E-08
  0.361499995      -3.22107567E-08
  0.361999989      -3.38258950E-08
  0.362500012      -3.54810865E-08
  0.363000005      -3.71765552E-08
  0.363499999      -3.89126065E-08
  0.363999993      -4.06896099E-08
  0.364499986      -4.25080167E-08
  0.365000010      -4.43683739E-08
  0.365500003      -4.62713032E-08
  0.365999997      -4.82175366E-08
  0.366499990      -5.02079374E-08
  0.367000014      -5.22434895E-08
  0.367500007      -5.43252554E-08
  0.368000001      -5.64544678E-08
  0.368499994      -5.86324660E-08
  0.368999988      -6.08607778E-08
  0.369500011      -6.31410160E-08
  0.370000005      -6.54750067E-08
  0.370499998      -6.78646472E-08
  0.370999992      -7.03120691E-08
  0.371499985      -7.28195388E-08
  0.372000009      -7.53895009E-08
  0.372500002      -7.80245557E-08
  0.372999996      -8.07274745E-08
  0.373499990      -8.35012344E-08
  0.374000013      -8.63489547E-08
  0.374500006      -8.92738967E-08
  0.375000000      -9.22795138E-08
  0.375499994      -9.53694794E-08
  0.375999987      -9.85475808E-08
  0.376500010      -1.01817811E-07
  0.377000004      -1.05184277E-07
  0.377499998      -1.08651300E-07
  0.377999991      -1.12223361E-07
  0.378500015      -1.15905031E-07
  0.379000008      -1.19701056E-07
  0.379500002      -1.23616246E-07
  0.379999995      -1.27655625E-07
  0.380499989      -1.31824237E-07
  0.381000012      -1.36127127E-07
  0.381500006      -1.40569540E-07
  0.381999999      -1.45156704E-07
  0.382499993      -1.49893751E-07
  0.382999986      -1.54785951E-07
  0.383500010      -1.59838407E-07
  0.384000003      -1.65056079E-07
  0.384499997      -1.70443968E-07
  0.384999990      -1.76006807E-07
  0.385500014      -1.81749030E-07
  0.386000007      -1.87674914E-07
  0.386500001      -1.93788296E-07
  0.386999995      -2.00092558E-07
  0.387499988      -2.06590812E-07
  0.388000011      -2.13285801E-07
  0.388500005      -2.20179317E-07
  0.388999999      -2.27272565E-07
  0.389499992      -2.34566315E-07
  0.389999986      -2.42060025E-07
  0.390500009      -2.49752446E-07
  0.391000003      -2.57641233E-07
  0.391499996      -2.65722832E-07
  0.391999990      -2.73992754E-07
  0.392500013      -2.82445029E-07
  0.393000007      -2.91072098E-07
  0.393500000      -2.99864581E-07
  0.393999994      -3.08811678E-07
  0.394499987      -3.17900572E-07
  0.395000011      -3.27116197E-07
  0.395500004      -3.36440934E-07
  0.395999998      -3.45855881E-07
  0.396499991      -3.55339068E-07
  0.397000015      -3.64865599E-07
  0.397500008      -3.74407250E-07
  0.398000002      -3.83933269E-07
  0.398499995      -3.93409096E-07
  0.398999989      -4.02796928E-07
  0.399500012      -4.12054987E-07
  0.400000006      -4.21136775E-07
  0.400500000      -4.29991019E-07
  0.400999993      -4.38562637E-07
  0.401499987      -4.46792484E-07
  0.402000010      -4.54614110E-07
  0.402500004      -4.61955608E-07
  0.402999997      -4.68739728E-07
  0.403499991      -4.74881261E-07
  0.404000014      -4.80289486E-07
  0.404500008      -4.84866348E-07
  0.405000001      -4.88505520E-07
  0.405499995      -4.91092578E-07
  0.405999988      -4.92503489E-07
  0.406500012      -4.92605523E-07
  0.407000005      -4.91256287E-07
  0.407499999      -4.88303044E-07
  0.407999992      -4.83579186E-07
  0.408499986      -4.76909520E-07
  0.409000009      -4.68106720E-07
  0.409500003      -4.56965495E-07
  0.409999996      -4.43269329E-07
  0.410499990      -4.26787295E-07
  0.411000013      -4.07271642E-07
  0.411500007      -3.84459071E-07
  0.412000000      -3.58067325E-07
  0.412499994      -3.27792918E-07
  0.412999988      -2.93313263E-07
  0.413500011      -2.54289375E-07
  0.414000005      -2.10357612E-07
  0.414499998      -1.61125953E-07
  0.414999992      -1.06182995E-07
  0.415499985      -4.50925519E-08
  0.416000009       2.26134063E-08
  0.416500002       9.74337766E-08
  0.416999996       1.79895167E-07
  0.417499989       2.70557251E-07
  0.418000013       3.70016011E-07
  0.418500006       4.78901882E-07
  0.419000000       5.97886356E-07
  0.419499993       7.27681709E-07
  0.419999987       8.69035318E-07
  0.420500010       1.02274635E-06
  0.421000004       1.18966352E-06
  0.421499997       1.37067570E-06
  0.421999991       1.56672888E-06
  0.422500014       1.77883123E-06
  0.423000008       2.00804629E-06
  0.423500001       2.25550070E-06
  0.423999995       2.52237919E-06
  0.424499989       2.80993004E-06
  0.425000012       3.11948111E-06
  0.425500005       3.45242893E-06
  0.425999999       3.81024665E-06
  0.426499993       4.19449498E-06
  0.426999986       4.60681576E-06
  0.427500010       5.04894615E-06
  0.428000003       5.52271786E-06