   0.00000000      -1.05170384E-09
   5.00000024E-04  -3.07085180E-09
   1.00000005E-03  -4.77677276E-09
   1.50000001E-03  -5.91169691E-09
   2.00000009E-03  -6.29702690E-09
   2.49999994E-03  -5.85973714E-09
   3.00000003E-03  -4.64631578E-09
   3.50000011E-03  -2.82195289E-09
   4.00000019E-03  -6.54664045E-10
   4.49999981E-03   1.51424273E-09
   4.99999989E-03   3.31031269E-09
   5.49999997E-03   4.37233005E-09
   6.00000005E-03   4.39963843E-09
   6.50000013E-03   3.19472604E-09
   7.00000022E-03   6.95607516E-10
   7.49999983E-03  -3.00664604E-09
   8.00000038E-03  -7.66852004E-09
   8.50000046E-03  -1.29143025E-08
   8.99999961E-03  -1.82754043E-08
   9.49999969E-03  -2.32460167E-08
   9.99999978E-03  -2.73503531E-08
   1.04999999E-02  -3.02150447E-08
   1.09999999E-02  -3.16390576E-08
   1.15000000E-02  -3.16530091E-08
   1.20000001E-02  -3.05600487E-08
   1.25000002E-02  -2.89514546E-08
   1.30000003E-02  -2.76919891E-08
   1.35000004E-02  -2.78725008E-08
   1.40000004E-02  -3.07300851E-08
   1.44999996E-02  -3.75393974E-08
   1.49999997E-02  -4.94817769E-08
   1.54999997E-02  -6.75015954E-08
   1.60000008E-02  -9.21615921E-08
   1.64999999E-02  -1.23510361E-07
   1.70000009E-02  -1.60975276E-07
   1.75000001E-02  -2.03294007E-07
   1.79999992E-02  -2.48495098E-07
   1.85000002E-02  -2.93935955E-07
   1.89999994E-02  -3.36402167E-07
   1.95000004E-02  -3.72267522E-07
   1.99999996E-02  -3.97709528E-07
   2.05000006E-02  -4.08970124E-07
   2.09999997E-02  -4.02646322E-07
   2.15000007E-02  -3.75992528E-07
   2.19999999E-02  -3.27213087E-07
   2.25000009E-02  -2.55722313E-07
   2.30000000E-02  -1.62350048E-07
   2.34999992E-02  -4.94722769E-08
   2.40000002E-02   7.89495118E-08
   2.44999994E-02   2.17432046E-07
   2.50000004E-02   3.59141580E-07
   2.54999995E-02   4.96171310E-07
   2.60000005E-02   6.19915340E-07
   2.64999997E-02   7.21521189E-07
   2.70000007E-02   7.92399362E-07
   2.74999999E-02   8.24758956E-07
   2.80000009E-02   8.12137500E-07
   2.85000000E-02   7.49890546E-07
   2.89999992E-02   6.35606739E-07
   2.95000002E-02   4.69416250E-07
   2.99999993E-02   2.54167475E-07
   3.05000003E-02  -4.54893900E-09
   3.09999995E-02  -2.98537913E-07
   3.15000005E-02  -6.17301680E-07
   3.20000015E-02  -9.48495710E-07
   3.24999988E-02  -1.27851979E-06
   3.29999998E-02  -1.59321382E-06
   3.35000008E-02  -1.87862372E-06
   3.40000018E-02  -2.12179384E-06
   3.44999991E-02  -2.31153763E-06
   3.50000001E-02  -2.43914405E-06
   3.55000012E-02  -2.49897130E-06
   3.59999985E-02  -2.48889069E-06
   3.64999995E-02  -2.41054886E-06
   3.70000005E-02  -2.26942552E-06
   3.75000015E-02  -2.07467929E-06
   3.79999988E-02  -1.83878149E-06
   3.84999998E-02  -1.57695524E-06
   3.90000008E-02  -1.30644639E-06
   3.95000018E-02  -1.04566357E-06
   3.99999991E-02  -8.13236397E-07
   4.05000001E-02  -6.27041516E-07
   4.10000011E-02  -5.03253602E-07
   4.14999984E-02  -4.55475629E-07
   4.19999994E-02  -4.93998527E-07
   4.25000004E-02  -6.25235316E-07
   4.30000015E-02  -8.51363552E-07
   4.34999987E-02  -1.17019829E-06
   4.39999998E-02  -1.57530474E-06
   4.45000008E-02  -2.05634433E-06
   4.50000018E-02  -2.59963963E-06
   4.54999991E-02  -3.18892035E-06
   4.60000001E-02  -3.80621555E-06
   4.65000011E-02  -4.43283625E-06
   4.69999984E-02  -5.05039270E-06
   4.74999994E-02  -5.64179481E-06
   4.80000004E-02  -6.19217053E-06
   4.85000014E-02  -6.68966095E-06
   4.89999987E-02  -7.12603833E-06
   4.94999997E-02  -7.49712444E-06
   5.00000007E-02  -7.80297887E-06
   5.05000018E-02  -8.04785941E-06
   5.09999990E-02  -8.23995742E-06
   5.15000001E-02  -8.39092081E-06
   5.20000011E-02  -8.51521509E-06
   5.24999984E-02  -8.62933666E-06
   5.29999994E-02  -8.75095520E-06
   5.35000004E-02  -8.89801777E-06
   5.40000014E-02  -9.08786478E-06
   5.44999987E-02  -9.33643787E-06
   5.49999997E-02  -9.65758500E-06
   5.55000007E-02  -1.00625257E-05
   5.60000017E-02  -1.05594982E-05
   5.64999990E-02  -1.11535928E-05
   5.70000000E-02  -1.18467915E-05
   5.75000010E-02  -1.26381947E-05
   5.79999983E-02  -1.35244090E-05
   5.84999993E-02  -1.45000886E-05
   5.90000004E-02  -1.55585531E-05
   5.95000014E-02  -1.66924856E-05
   5.99999987E-02  -1.78946320E-05
   6.04999997E-02  -1.91584841E-05
   6.10000007E-02  -2.04788776E-05
   6.15000017E-02  -2.18524874E-05
   6.19999990E-02  -2.32782040E-05
   6.25000000E-02  -2.47573462E-05
   6.30000010E-02  -2.62937265E-05
   6.35000020E-02  -2.78935568E-05
   6.40000030E-02  -2.95652208E-05
   6.44999966E-02  -3.13189194E-05
   6.49999976E-02  -3.31662231E-05
   6.54999986E-02  -3.51195777E-05
   6.59999996E-02  -3.71917777E-05
   6.65000007E-02  -3.93954288E-05
   6.70000017E-02  -4.17425072E-05
   6.75000027E-02  -4.42439559E-05
   6.80000037E-02  -4.69093829E-05
   6.84999973E-02  -4.97469191E-05
   6.89999983E-02  -5.27631346E-05
   6.94999993E-02  -5.59631335E-05
   7.00000003E-02  -5.93507502E-05
   7.05000013E-02  -6.29288552E-05
   7.10000023E-02  -6.66997439E-05
   7.15000033E-02  -7.06655701E-05
   7.19999969E-02  -7.48288512E-05
   7.24999979E-02  -7.91929488E-05
   7.29999989E-02  -8.37624975E-05
   7.34999999E-02  -8.85438785E-05
   7.40000010E-02  -9.35455028E-05
   7.45000020E-02  -9.87781023E-05
   7.50000030E-02  -1.04254868E-04
   7.54999965E-02  -1.09991524E-04
   7.59999976E-02  -1.16006253E-04
   7.64999986E-02  -1.22319616E-04
   7.69999996E-02  -1.28954329E-04
   7.75000006E-02  -1.35935028E-04
   7.80000016E-02  -1.43287863E-04
   7.85000026E-02  -1.51040251E-04
   7.90000036E-02  -1.59220537E-04
   7.94999972E-02  -1.67857681E-04
   7.99999982E-02  -1.76981019E-04
   8.04999992E-02  -1.86620018E-04
   8.10000002E-02  -1.96804132E-04
   8.15000013E-02  -2.07562698E-04
   8.20000023E-02  -2.18924950E-04
   8.25000033E-02  -2.30920064E-04
   8.29999968E-02  -2.43577248E-04
   8.34999979E-02  -2.56925967E-04
   8.39999989E-02  -2.70996068E-04
   8.44999999E-02  -2.85818096E-04
   8.50000009E-02  -3.01423570E-04
   8.55000019E-02  -3.17845261E-04
   8.60000029E-02  -3.35117336E-04
   8.64999965E-02  -3.53275769E-04
   8.69999975E-02  -3.72358656E-04
   8.74999985E-02  -3.92406160E-04
   8.79999995E-02  -4.13460890E-04
   8.85000005E-02  -4.35568130E-04
   8.90000015E-02  -4.58775845E-04
   8.95000026E-02  -4.83134761E-04
   9.00000036E-02  -5.08698577E-04
   9.04999971E-02  -5.35524159E-04
   9.09999982E-02  -5.63671289E-04
   9.14999992E-02  -5.93203062E-04
   9.20000002E-02  -6.24185777E-04
   9.25000012E-02  -6.56688993E-04
   9.30000022E-02  -6.90785353E-04
   9.35000032E-02  -7.26551109E-04
   9.39999968E-02  -7.64065771E-04
   9.44999978E-02  -8.03412579E-04
   9.49999988E-02  -8.44678318E-04
   9.54999998E-02  -8.87953327E-04
   9.60000008E-02  -9.33331787E-04
   9.65000018E-02  -9.80911776E-04
   9.70000029E-02  -1.03079563E-03
   9.74999964E-02  -1.08308939E-03
   9.79999974E-02  -1.13790389E-03
   9.84999985E-02  -1.19535381E-03
   9.89999995E-02  -1.25555880E-03
   9.95000005E-02  -1.31864322E-03
  0.100000001      -1.38473604E-03
  0.100500003      -1.45397172E-03
  0.101000004      -1.52649009E-03
  0.101499997      -1.60243583E-03
  0.101999998      -1.68196019E-03
  0.102499999      -1.76521973E-03
  0.103000000      -1.85237732E-03
  0.103500001      -1.94360269E-03
  0.104000002      -2.03907187E-03
  0.104500003      -2.13896739E-03
  0.104999997      -2.24347971E-03
  0.105499998      -2.35280604E-03
  0.105999999      -2.46715103E-03
  0.106500000      -2.58672796E-03
  0.107000001      -2.71175709E-03
  0.107500002      -2.84246774E-03
  0.108000003      -2.97909789E-03
  0.108499996      -3.12189409E-03
  0.108999997      -3.27111222E-03
  0.109499998      -3.42701725E-03
  0.109999999      -3.58988484E-03
  0.110500000      -3.76000023E-03
  0.111000001      -3.93765885E-03
  0.111500002      -4.12316807E-03
  0.112000003      -4.31684591E-03
  0.112499997      -4.51902300E-03
  0.112999998      -4.73004254E-03
  0.113499999      -4.95025981E-03
  0.114000000      -5.18004410E-03
  0.114500001      -5.41977771E-03
  0.115000002      -5.66985831E-03
  0.115500003      -5.93069801E-03
  0.115999997      -6.20272243E-03
  0.116499998      -6.48637349E-03
  0.116999999      -6.78210938E-03
  0.117500000      -7.09040416E-03
  0.118000001      -7.41174817E-03
  0.118500002      -7.74664897E-03
  0.119000003      -8.09562951E-03
  0.119499996      -8.45923182E-03
  0.119999997      -8.83801188E-03
  0.120499998      -9.23254807E-03
  0.120999999      -9.64343455E-03
  0.121500000      -1.00712869E-02
  0.122000001      -1.05167395E-02
  0.122500002      -1.09804459E-02
  0.123000003      -1.14630796E-02
  0.123499997      -1.19653344E-02
  0.123999998      -1.24879265E-02
  0.124499999      -1.30315963E-02
  0.125000000      -1.35971075E-02
  0.125499994      -1.41852461E-02
  0.126000002      -1.47968223E-02
  0.126499996      -1.54326744E-02
  0.127000004      -1.60936657E-02
  0.127499998      -1.67806819E-02
  0.128000006      -1.74946394E-02
  0.128500000      -1.82364844E-02
  0.128999993      -1.90071892E-02
  0.129500002      -1.98077522E-02
  0.129999995      -2.06392072E-02
  0.130500004      -2.15026140E-02
  0.130999997      -2.23990623E-02
  0.131500006      -2.33296789E-02
  0.131999999      -2.42956169E-02
  0.132499993      -2.52980608E-02
  0.133000001      -2.63382271E-02
  0.133499995      -2.74173673E-02
  0.134000003      -2.85367705E-02
  0.134499997      -2.96977535E-02
  0.135000005      -3.09016705E-02
  0.135499999      -3.21499109E-02
  0.136000007      -3.34438980E-02
  0.136500001      -3.47850844E-02
  0.136999995      -3.61749791E-02
  0.137500003      -3.76151130E-02
  0.137999997      -3.91070582E-02
  0.138500005      -4.06524278E-02
  0.138999999      -4.22528721E-02
  0.139500007      -4.39100787E-02
  0.140000001      -4.56257798E-02
  0.140499994      -4.74017411E-02
  0.141000003      -4.92397808E-02
  0.141499996      -5.11417538E-02
  0.142000005      -5.31095527E-02
  0.142499998      -5.51451109E-02
  0.143000007      -5.72504140E-02
  0.143500000      -5.94274960E-02
  0.143999994      -6.16784170E-02
  0.144500002      -6.40052930E-02
  0.144999996      -6.64102733E-02
  0.145500004      -6.88955635E-02
  0.145999998      -7.14634061E-02
  0.146500006      -7.41160959E-02
  0.147000000      -7.68559575E-02
  0.147499993      -7.96853751E-02
  0.148000002      -8.26067626E-02
  0.148499995      -8.56225714E-02
  0.149000004      -8.87353122E-02
  0.149499997      -9.19475257E-02
  0.150000006      -9.52618048E-02
  0.150500000      -9.86807868E-02
  0.150999993     -0.102207147    
  0.151500002     -0.105843604    
  0.151999995     -0.109592892    
  0.152500004     -0.113457821    
  0.152999997     -0.117441237    
  0.153500006     -0.121546000    
  0.153999999     -0.125775024    
  0.154499993     -0.130131274    
  0.155000001     -0.134617731    
  0.155499995     -0.139237434    
  0.156000003     -0.143993437    
  0.156499997     -0.148888856    
  0.157000005     -0.153926834    
  0.157499999     -0.159110531    
  0.158000007     -0.164443120    
  0.158500001     -0.169927850    
  0.158999994     -0.175567955    
  0.159500003     -0.181366697    
  0.159999996     -0.187327385    
  0.160500005     -0.193453342    
  0.160999998     -0.199747890    
  0.161500007     -0.206214413    
  0.162000000     -0.212856233    
  0.162499994     -0.219676763    
  0.163000003     -0.226679340    
  0.163499996     -0.233867317    
  0.164000005     -0.241244107    
  0.164499998     -0.248813123    
  0.165000007     -0.256577730    
  0.165500000     -0.264541298    
  0.165999994     -0.272707224    
  0.166500002     -0.281078845    
  0.166999996     -0.289659530    
  0.167500004     -0.298452586    
  0.167999998     -0.307461351    
  0.168500006     -0.316689044    
  0.169000000     -0.326138943    
  0.169499993     -0.335814267    
  0.170000002     -0.345718175    
  0.170499995     -0.355853766    
  0.171000004     -0.366224080    
  0.171499997     -0.376832187    
  0.172000006     -0.387681007    
  0.172499999     -0.398773432    
  0.172999993     -0.410112262    
  0.173500001     -0.421700209    
  0.173999995     -0.433539927    
  0.174500003     -0.445633978    
  0.174999997     -0.457984716    
  0.175500005     -0.470594525    
  0.175999999     -0.483465582    
  0.176499993     -0.496600002    
  0.177000001     -0.509999871    
  0.177499995     -0.523666918    
  0.178000003     -0.537602961    
  0.178499997     -0.551809549    
  0.179000005     -0.566288173    
  0.179499999     -0.581040084    
  0.180000007     -0.596066415    
  0.180500001     -0.611368179    
  0.180999994     -0.626946151    
  0.181500003     -0.642800927    
  0.181999996     -0.658932984    
  0.182500005     -0.675342441    
  0.182999998     -0.692029178    
  0.183500007     -0.708993077    
  0.184000000     -0.726233542    
  0.184499994     -0.743749738    
  0.185000002     -0.761540830    
  0.185499996     -0.779605508    
  0.186000004     -0.797942102    
  0.186499998     -0.816548824    
  0.187000006     -0.835423529    
  0.187500000     -0.854563713    
  0.187999994     -0.873966932    
  0.188500002     -0.893630028    
  0.188999996     -0.913549721    
  0.189500004     -0.933722436    
  0.189999998     -0.954144120    
  0.190500006     -0.974810243    
  0.191000000     -0.995716155    
  0.191499993      -1.01685691    
  0.192000002      -1.03822696    
  0.192499995      -1.05982065    
  0.193000004      -1.08163154    
  0.193499997      -1.10365295    
  0.194000006      -1.12587810    
  0.194499999      -1.14829922    
  0.194999993      -1.17090881    
  0.195500001      -1.19369805    
  0.195999995      -1.21665847    
  0.196500003      -1.23978043    
  0.196999997      -1.26305425    
  0.197500005      -1.28646970    
  0.197999999      -1.31001616    
  0.198500007      -1.33368206    
  0.199000001      -1.35745573    
  0.199499995      -1.38132501    
  0.200000003      -1.40527713    
  0.200499997      -1.42929864    
  0.201000005      -1.45337605    
  0.201499999      -1.47749496    
  0.202000007      -1.50164056    
  0.202500001      -1.52579737    
  0.202999994      -1.54994965    
  0.203500003      -1.57408082    
  0.203999996      -1.59817386    
  0.204500005      -1.62221110    
  0.204999998      -1.64617431    
  0.205500007      -1.67004478    
  0.206000000      -1.69380331    
  0.206499994      -1.71743000    
  0.207000002      -1.74090445    
  0.207499996      -1.76420534    
  0.208000004      -1.78731179    
  0.208499998      -1.81020129    
  0.209000006      -1.83285117    
  0.209500000      -1.85523832    
  0.209999993      -1.87733865    
  0.210500002      -1.89912772    
  0.210999995      -1.92058074    
  0.211500004      -1.94167244    
  0.211999997      -1.96237671    
  0.212500006      -1.98266697    
  0.213000000      -2.00251627    
  0.213499993      -2.02189708    
  0.214000002      -2.04078150    
  0.214499995      -2.05914092    
  0.215000004      -2.07694602    
  0.215499997      -2.09416795    
  0.216000006      -2.11077571    
  0.216499999      -2.12673831    
  0.216999993      -2.14202547    
  0.217500001      -2.15660572    
  0.217999995      -2.17044663    
  0.218500003      -2.18351626    
  0.218999997      -2.19578195    
  0.219500005      -2.20721078    
  0.219999999      -2.21776938    
  0.220500007      -2.22742414    
  0.221000001      -2.23614144    
  0.221499994      -2.24388671    
  0.222000003      -2.25062609    
  0.222499996      -2.25632524    
  0.223000005      -2.26094985    
  0.223499998      -2.26446486    
  0.224000007      -2.26683474    
  0.224500000      -2.26802468    
  0.224999994      -2.26799965    
  0.225500003      -2.26672482    
  0.225999996      -2.26416516    
  0.226500005      -2.26028466    
  0.226999998      -2.25504804    
  0.227500007      -2.24842024    
  0.228000000      -2.24036598    
  0.228499994      -2.23085022    
  0.229000002      -2.21983814    
  0.229499996      -2.20729566    
  0.230000004      -2.19318771    
  0.230499998      -2.17748094    
  0.231000006      -2.16014171    
  0.231500000      -2.14113665    
  0.231999993      -2.12043262    
  0.232500002      -2.09799790    
  0.232999995      -2.07380009    
  0.233500004      -2.04780817    
  0.233999997      -2.01999211    
  0.234500006      -1.99032199    
  0.234999999      -1.95876837    
  0.235499993      -1.92530274    
  0.236000001      -1.88989818    
  0.236499995      -1.85252786    
  0.237000003      -1.81316555    
  0.237499997      -1.77178574    
  0.238000005      -1.72836483    
  0.238499999      -1.68288004    
  0.238999993      -1.63530934    
  0.239500001      -1.58563197    
  0.239999995      -1.53382826    
  0.240500003      -1.47987950    
  0.240999997      -1.42376888    
  0.241500005      -1.36548054    
  0.241999999      -1.30499995    
  0.242500007      -1.24231410    
  0.243000001      -1.17741120    
  0.243499994      -1.11028147    
  0.244000003      -1.04091668    
  0.244499996     -0.969309926    
  0.245000005     -0.895456135    
  0.245499998     -0.819351852    
  0.246000007     -0.740994990    
  0.246500000     -0.660385966    
  0.246999994     -0.577526391    
  0.247500002     -0.492420048    
  0.247999996     -0.405072659    
  0.248500004     -0.315491736    
  0.248999998     -0.223686680    
  0.249500006     -0.129669830    
  0.250000000      -3.34550962E-02
  0.250499994       6.49417862E-02
  0.250999987      0.165502876    
  0.251500010      0.268207997    
  0.252000004      0.373034865    
  0.252499998      0.479958594    
  0.252999991      0.588952124    
  0.253500015      0.699986756    
  0.254000008      0.813030660    
  0.254500002      0.928049803    
  0.254999995       1.04500782    
  0.255499989       1.16386628    
  0.256000012       1.28458357    
  0.256500006       1.40711606    
  0.256999999       1.53141809    
  0.257499993       1.65744102    
  0.257999986       1.78513408    
  0.258500010       1.91444409    
  0.259000003       2.04531527    
  0.259499997       2.17768979    
  0.259999990       2.31150723    
  0.260500014       2.44670463    
  0.261000007       2.58321691    
  0.261500001       2.72097635    
  0.261999995       2.85991335    
  0.262499988       2.99995589    
  0.263000011       3.14102912    
  0.263500005       3.28305626    
  0.263999999       3.42595816    
  0.264499992       3.56965232    
  0.264999986       3.71405530    
  0.265500009       3.85908079    
  0.266000003       4.00464106    
  0.266499996       4.15064526    
  0.266999990       4.29700136    
  0.267500013       4.44361353    
  0.268000007       4.59038544    
  0.268500000       4.73721886    
  0.268999994       4.88401222    
  0.269499987       5.03066397    
  0.270000011       5.17706966    
  0.270500004       5.32312441    
  0.270999998       5.46871948    
  0.271499991       5.61374760    
  0.272000015       5.75809765    
  0.272500008       5.90165854    
  0.273000002       6.04431725    
  0.273499995       6.18596029    
  0.273999989       6.32647181    
  0.274500012       6.46573639    
  0.275000006       6.60363722    
  0.275500000       6.74005604    
  0.275999993       6.87487411    
  0.276499987       7.00797272    
  0.277000010       7.13923073    
  0.277500004       7.26852798    
  0.277999997       7.39574385    
  0.278499991       7.52075720    
  0.279000014       7.64344645    
  0.279500008       7.76368999    
  0.280000001       7.88136625    
  0.280499995       7.99635458    
  0.280999988       8.10853481    
  0.281500012       8.21778584    
  0.282000005       8.32398891    
  0.282499999       8.42702293    
  0.282999992       8.52677155    
  0.283499986       8.62311649    
  0.284000009       8.71594238    
  0.284500003       8.80513477    
  0.284999996       8.89057827    
  0.285499990       8.97216320    
  0.286000013       9.04977703    
  0.286500007       9.12331104    
  0.287000000       9.19266033    
  0.287499994       9.25771904    
  0.287999988       9.31838322    
  0.288500011       9.37455463    
  0.289000005       9.42613316    
  0.289499998       9.47302246    
  0.289999992       9.51512909    
  0.290499985       9.55236340    
  0.291000009       9.58463669    
  0.291500002       9.61186409    
  0.291999996       9.63396358    
  0.292499989       9.65085697    
  0.293000013       9.66246700    
  0.293500006       9.66872311    
  0.294000000       9.66955662    
  0.294499993       9.66490364    
  0.294999987       9.65470123    
  0.295500010       9.63889599    
  0.296000004       9.61743259    
  0.296499997       9.59026241    
  0.296999991       9.55733871    
  0.297500014       9.51861954    
  0.298000008       9.47406864    
  0.298500001       9.42365456    
  0.298999995       9.36735058    
  0.299499989       9.30513287    
  0.300000012       9.23698139    
  0.300500005       9.16288185    
  0.300999999       9.08282661    
  0.301499993       8.99680996    
  0.301999986       8.90483379    
  0.302500010       8.80690193    
  0.303000003       8.70302486    
  0.303499997       8.59321690    
  0.303999990       8.47749996    
  0.304500014       8.35589981    
  0.305000007       8.22844505    
  0.305500001       8.09517193    
  0.305999994       7.95612049    
  0.306499988       7.81133604    
  0.307000011       7.66086960    
  0.307500005       7.50477743    
  0.307999998       7.34312105    
  0.308499992       7.17596722    
  0.308999985       7.00338602    
  0.309500009       6.82545471    
  0.310000002       6.64225435    
  0.310499996       6.45387125    
  0.310999990       6.26039696    
  0.311500013       6.06192875    
  0.312000006       5.85856676    
  0.312500000       5.65041590    
  0.312999994       5.43758726    
  0.313499987       5.22019672    
  0.314000010       4.99836349    
  0.314500004       4.77221155    
  0.314999998       4.54186821    
  0.315499991       4.30746603    
  0.316000015       4.06914186    
  0.316500008       3.82703614    
  0.317000002       3.58129334    
  0.317499995       3.33206272    
  0.317999989       3.07949758    
  0.318500012       2.82375479    
  0.319000006       2.56499434    
  0.319499999       2.30337930    
  0.319999993       2.03907752    
  0.320499986       1.77225983    
  0.321000010       1.50309861    
  0.321500003       1.23176873    
  0.321999997      0.958448946    
  0.322499990      0.683320165    
  0.323000014      0.406565994    
  0.323500007      0.128372446    
  0.324000001     -0.151073530    
  0.324499995     -0.431581825    
  0.324999988     -0.712960601    
  0.325500011     -0.995017171    
  0.326000005      -1.27755833    
  0.326499999      -1.56038940    
  0.326999992      -1.84331512    
  0.327499986      -2.12613940    
  0.328000009      -2.40866590    
  0.328500003      -2.69069719    
  0.328999996      -2.97203541    
  0.329499990      -3.25248194    
  0.330000013      -3.53183866    
  0.330500007      -3.80990887    
  0.331000000      -4.08649540    
  0.331499994      -4.36140156    
  0.331999987      -4.63443232    
  0.332500011      -4.90539455    
  0.333000004      -5.17409468    
  0.333499998      -5.44034052    
  0.333999991      -5.70394278    
  0.334500015      -5.96471214    
  0.335000008      -6.22246218    
  0.335500002      -6.47700882    
  0.335999995      -6.72816992    
  0.336499989      -6.97576809    
  0.337000012      -7.21962643    
  0.337500006      -7.45957184    
  0.338000000      -7.69543457    
  0.338499993      -7.92704725    
  0.338999987      -8.15424633    
  0.339500010      -8.37687206    
  0.340000004      -8.59476852    
  0.340499997      -8.80778503    
  0.340999991      -9.01577091    
  0.341500014      -9.21858311    
  0.342000008      -9.41608047    
  0.342500001      -9.60812759    
  0.342999995      -9.79459286    
  0.343499988      -9.97534943    
  0.344000012      -10.1502762    
  0.344500005      -10.3192558    
  0.344999999      -10.4821768    
  0.345499992      -10.6389313    
  0.345999986      -10.7894192    
  0.346500009      -10.9335423    
  0.347000003      -11.0712109    
  0.347499996      -11.2023392    
  0.347999990      -11.3268480    
  0.348500013      -11.4446640    
  0.349000007      -11.5557175    
  0.349500000      -11.6599464    
  0.349999994      -11.7572947    
  0.350499988      -11.8477106    
  0.351000011      -11.9311495    
  0.351500005      -12.0075731    
  0.351999998      -12.0769472    
  0.352499992      -12.1392450    
  0.352999985      -12.1944466    
  0.353500009      -12.2425356    
  0.354000002      -12.2835016    
  0.354499996      -12.3173418    
  0.354999989      -12.3440580    
  0.355500013      -12.3636589    
  0.356000006      -12.3761578    
  0.356500000      -12.3815727    
  0.356999993      -12.3799295    
  0.357499987      -12.3712587    
  0.358000010      -12.3555975    
  0.358500004      -12.3329859    
  0.358999997      -12.3034725    
  0.359499991      -12.2671089    
  0.360000014      -12.2239542    
  0.360500008      -12.1740694    
  0.361000001      -12.1175251    
  0.361499995      -12.0543947    
  0.361999989      -11.9847555    
  0.362500012      -11.9086924    
  0.363000005      -11.8262930    
  0.363499999      -11.7376528    
  0.363999993      -11.6428680    
  0.364499986      -11.5420418    
  0.365000010      -11.4352818    
  0.365500003      -11.3226976    
  0.365999997      -11.2044067    
  0.366499990      -11.0805283    
  0.367000014      -10.9511843    
  0.367500007      -10.8165016    
  0.368000001      -10.6766109    
  0.368499994      -10.5316467    
  0.368999988      -10.3817444    
  0.369500011      -10.2270441    
  0.370000005      -10.0676870    
  0.370499998      -9.90381908    
  0.370999992      -9.73558712    
  0.371499985      -9.56314182    
  0.372000009      -9.38663387    
  0.372500002      -9.20621681    
  0.372999996      -9.02204514    
  0.373499990      -8.83427715    
  0.374000013      -8.64307213    
  0.374500006      -8.44858742    
  0.375000000      -8.25098419    
  0.375499994      -8.05042648    
  0.375999987      -7.84707594    
  0.376500010      -7.64109755    
  0.377000004      -7.43265438    
  0.377499998      -7.22191143    
  0.377999991      -7.00903177    
  0.378500015      -6.79418182    
  0.379000008      -6.57752609    
  0.379500002      -6.35923004    
  0.379999995      -6.13945675    
  0.380499989      -5.91836977    
  0.381000012      -5.69613123    
  0.381500006      -5.47290230    
  0.381999999      -5.24884415    
  0.382499993      -5.02411604    
  0.382999986      -4.79887581    
  0.383500010      -4.57327986    
  0.384000003      -4.34748411    
  0.384499997      -4.12163973    
  0.384999990      -3.89589739    
  0.385500014      -3.67040586    
  0.386000007      -3.44531202    
  0.386500001      -3.22076130    
  0.386999995      -2.99689555    
  0.387499988      -2.77385354    
  0.388000011      -2.55177236    
  0.388500005      -2.33078647    
  0.388999999      -2.11102629    
  0.389499992      -1.89262104    
  0.389999986      -1.67569554    
  0.390500009      -1.46037209    
  0.391000003      -1.24677026    
  0.391499996      -1.03500605    
  0.391999990     -0.825192392    
  0.392500013     -0.617439032    
  0.393000007     -0.411852121    
  0.393500000     -0.208534226    
  0.393999994      -7.58353854E-03
  0.394499987      0.190904275    
  0.395000011      0.386837423    
  0.395500004      0.580128610    
  0.395999998      0.770694017    
  0.396499991      0.958453476    
  0.397000015       1.14333057    
  0.397500008       1.32525158    
  0.398000002       1.50414693    
  0.398499995       1.67995179    
  0.398999989       1.85260415    
  0.399500012       2.02204609    
  0.400000006       2.18822312    
  0.400500000       2.35108471    
  0.400999993       2.51058364    
  0.401499987       2.66667676    
  0.402000010       2.81932449    
  0.402500004       2.96849036    
  0.402999997       3.11414170    
  0.403499991       3.25624990    
  0.404000014       3.39478946    
  0.404500008       3.52973843    
  0.405000001       3.66107869    
  0.405499995       3.78879523    
  0.405999988       3.91287661    
  0.406500012       4.03331518    
  0.407000005       4.15010548    
  0.407499999       4.26324606    
  0.407999992       4.37273788    
  0.408499986       4.47858524    
  0.409000009       4.58079529    
  0.409500003       4.67937803    
  0.409999996       4.77434731    
  0.410499990       4.86571741    
  0.411000013       4.95350838    
  0.411500007       5.03773975    
  0.412000000       5.11843586    
  0.412499994       5.19562149    
  0.412999988       5.26932430    
  0.413500011       5.33957529    
  0.414000005       5.40640640    
  0.414499998       5.46985102    
  0.414999992       5.52994585    
  0.415499985       5.58672905    
  0.416000009       5.64023924    
  0.416500002       5.69051790    
  0.416999996       5.73760700    
  0.417499989       5.78155231    
  0.418000013       5.82239819    
  0.418500006       5.86019182    
  0.419000000       5.89498186    
  0.419499993       5.92681694    
  0.419999987       5.95574856    
  0.420500010       5.98182726    
  0.421000004       6.00510502    
  0.421499997       6.02563429    
  0.421999991       6.04346943    
  0.422500014       6.05866432    
  0.423000008       6.07127285    
  0.423500001       6.08135033    
  0.423999995       6.08895254    
  0.424499989       6.09413338    
  0.425000012       6.09695005    
  0.425500005       6.09745789    
  0.425999999       6.09571218    
  0.426499993       6.09176826    
  0.426999986       6.08568144    
  0.427500010       6.07750750    
  0.428000003       6.06730127    