   0.00000000       0.00000000    
   5.00000024E-04  -3.31164610E-12
   1.00000005E-03  -9.52320861E-12
   1.50000001E-03  -1.76233091E-11
   2.00000009E-03  -2.61159115E-11
   2.49999994E-03  -3.31984509E-11
   3.00000003E-03  -3.69869690E-11
   3.50000011E-03  -3.57657827E-11
   4.00000019E-03  -2.82359830E-11
   4.49999981E-03  -1.37365865E-11
   4.99999989E-03   7.58638291E-12
   5.49999997E-03   3.46834297E-11
   6.00000005E-03   6.55922885E-11
   6.50000013E-03   9.75228509E-11
   7.00000022E-03   1.27034869E-10
   7.49999983E-03   1.50298343E-10
   8.00000038E-03   1.63418515E-10
   8.50000046E-03   1.62800357E-10
   8.99999961E-03   1.45522705E-10
   9.49999969E-03   1.09689632E-10
   9.99999978E-03   5.47264178E-11
   1.04999999E-02  -1.84092932E-11
   1.09999999E-02  -1.07125399E-10
   1.15000000E-02  -2.07218784E-10
   1.20000001E-02  -3.13031462E-10
   1.25000002E-02  -4.17736151E-10
   1.30000003E-02  -5.13737275E-10
   1.35000004E-02  -5.93164129E-10
   1.40000004E-02  -6.48423037E-10
   1.44999996E-02  -6.72770839E-10
   1.49999997E-02  -6.60866861E-10
   1.54999997E-02  -6.09260808E-10
   1.60000008E-02  -5.16776677E-10
   1.64999999E-02  -3.84758642E-10
   1.70000009E-02  -2.17154128E-10
   1.75000001E-02  -2.04180492E-11
   1.79999992E-02   1.96760594E-10
   1.85000002E-02   4.23902247E-10
   1.89999994E-02   6.49323706E-10
   1.95000004E-02   8.60834681E-10
   1.99999996E-02   1.04649933E-09
   2.05000006E-02   1.19541255E-09
   2.09999997E-02   1.29843747E-09
   2.15000007E-02   1.34885181E-09
   2.19999999E-02   1.34285516E-09
   2.25000009E-02   1.27990030E-09
   2.30000000E-02   1.16281740E-09
   2.34999992E-02   9.97719463E-10
   2.40000002E-02   7.93689003E-10
   2.44999994E-02   5.62261404E-10
   2.50000004E-02   3.16736110E-10
   2.54999995E-02   7.13580098E-11
   2.60000005E-02  -1.59577268E-10
   2.64999997E-02  -3.62636060E-10
   2.70000007E-02  -5.26114763E-10
   2.74999999E-02  -6.40804687E-10
   2.80000009E-02  -7.00599745E-10
   2.85000000E-02  -7.02903069E-10
   2.89999992E-02  -6.48803455E-10
   2.95000002E-02  -5.43005030E-10
   2.99999993E-02  -3.93513250E-10
   3.05000003E-02  -2.11094614E-10
   3.09999995E-02  -8.54507784E-12
   3.15000005E-02   2.00185049E-10
   3.20000015E-02   4.00953493E-10
   3.24999988E-02   5.80408055E-10
   3.29999998E-02   7.26925020E-10
   3.35000008E-02   8.31436253E-10
   3.40000018E-02   8.88091045E-10
   3.44999991E-02   8.94703811E-10
   3.50000001E-02   8.52957593E-10
   3.55000012E-02   7.68343555E-10
   3.59999985E-02   6.49845067E-10
   3.64999995E-02   5.09378817E-10
   3.70000005E-02   3.61033342E-10
   3.75000015E-02   2.20154298E-10
   3.79999988E-02   1.02335265E-10
   3.84999998E-02   2.23846896E-11
   3.90000008E-02  -6.66423557E-12
   3.95000018E-02   2.55665315E-11
   3.99999991E-02   1.26092442E-10
   4.05000001E-02   2.98074981E-10
   4.10000011E-02   5.40586131E-10
   4.14999984E-02   8.48639492E-10
   4.19999994E-02   1.21349619E-09
   4.25000004E-02   1.62321423E-09
   4.30000015E-02   2.06341699E-09
   4.34999987E-02   2.51823029E-09
   4.39999998E-02   2.97131586E-09
   4.45000008E-02   3.40694584E-09
   4.50000018E-02   3.81104970E-09
   4.54999991E-02   4.17215151E-09
   4.60000001E-02   4.48215198E-09
   4.65000011E-02   4.73690065E-09
   4.69999984E-02   4.93651431E-09
   4.74999994E-02   5.08543563E-09
   4.80000004E-02   5.19221732E-09
   4.85000014E-02   5.26906163E-09
   4.89999987E-02   5.33112487E-09
   4.94999997E-02   5.39565059E-09
   5.00000007E-02   5.48099477E-09
   5.05000018E-02   5.60557556E-09
   5.09999990E-02   5.78684478E-09
   5.15000001E-02   6.04033890E-09
   5.20000011E-02   6.37884323E-09
   5.24999984E-02   6.81177292E-09
   5.29999994E-02   7.34474304E-09
   5.35000004E-02   7.97940292E-09
   5.40000014E-02   8.71351258E-09
   5.44999987E-02   9.54126200E-09
   5.49999997E-02   1.04538120E-08
   5.55000007E-02   1.14399850E-08
   5.60000017E-02   1.24871331E-08
   5.64999990E-02   1.35820439E-08
   5.70000000E-02   1.47118904E-08
   5.75000010E-02   1.58651137E-08
   5.79999983E-02   1.70322263E-08
   5.84999993E-02   1.82064923E-08
   5.90000004E-02   1.93844176E-08
   5.95000014E-02   2.05660413E-08
   5.99999987E-02   2.17550404E-08
   6.04999997E-02   2.29585897E-08
   6.10000007E-02   2.41871323E-08
   6.15000017E-02   2.54538559E-08
   6.19999990E-02   2.67741544E-08
   6.25000000E-02   2.81649797E-08
   6.30000010E-02   2.96441325E-08
   6.35000020E-02   3.12296002E-08
   6.40000030E-02   3.29389245E-08
   6.44999966E-02   3.47886662E-08
   6.49999976E-02   3.67939741E-08
   6.54999986E-02   3.89683095E-08
   6.59999996E-02   4.13232968E-08
   6.65000007E-02   4.38687202E-08
   6.70000017E-02   4.66126480E-08
   6.75000027E-02   4.95617307E-08
   6.80000037E-02   5.27214929E-08
   6.84999973E-02   5.60967202E-08
   6.89999983E-02   5.96919847E-08
   6.94999993E-02   6.35119761E-08
   7.00000003E-02   6.75619987E-08
   7.05000013E-02   7.18483051E-08
   7.10000023E-02   7.63784342E-08
   7.15000033E-02   8.11614100E-08
   7.19999969E-02   8.62078977E-08
   7.24999979E-02   9.15303175E-08
   7.29999989E-02   9.71428733E-08
   7.34999999E-02   1.03061446E-07
   7.40000010E-02   1.09303507E-07
   7.45000020E-02   1.15888099E-07
   7.50000030E-02   1.22835601E-07
   7.54999965E-02   1.30167777E-07
   7.59999976E-02   1.37907520E-07
   7.64999986E-02   1.46079017E-07
   7.69999996E-02   1.54707507E-07
   7.75000006E-02   1.63819337E-07
   7.80000016E-02   1.73442231E-07
   7.85000026E-02   1.83605181E-07
   7.90000036E-02   1.94338497E-07
   7.94999972E-02   2.05674212E-07
   7.99999982E-02   2.17645734E-07
   8.04999992E-02   2.30288379E-07
   8.10000002E-02   2.43639221E-07
   8.15000013E-02   2.57737184E-07
   8.20000023E-02   2.72623140E-07
   8.25000033E-02   2.88339862E-07
   8.29999968E-02   3.04932001E-07
   8.34999979E-02   3.22446169E-07
   8.39999989E-02   3.40930853E-07
   8.44999999E-02   3.60436530E-07
   8.50000009E-02   3.81015525E-07
   8.55000019E-02   4.02722350E-07
   8.60000029E-02   4.25613507E-07
   8.64999965E-02   4.49747859E-07
   8.69999975E-02   4.75186937E-07
   8.74999985E-02   5.01994805E-07
   8.79999995E-02   5.30238651E-07
   8.85000005E-02   5.59989303E-07
   8.90000015E-02   5.91320884E-07
   8.95000026E-02   6.24311554E-07
   9.00000036E-02   6.59044133E-07
   9.04999971E-02   6.95605365E-07
   9.09999982E-02   7.34087166E-07
   9.14999992E-02   7.74586283E-07
   9.20000002E-02   8.17204580E-07
   9.25000012E-02   8.62048978E-07
   9.30000022E-02   9.09231630E-07
   9.35000032E-02   9.58870032E-07
   9.39999968E-02   1.01108651E-06
   9.44999978E-02   1.06600908E-06
   9.49999988E-02   1.12377063E-06
   9.54999998E-02   1.18450964E-06
   9.60000008E-02   1.24836981E-06
   9.65000018E-02   1.31550075E-06
   9.70000029E-02   1.38605799E-06
   9.74999964E-02   1.46020363E-06
   9.79999974E-02   1.53810606E-06
   9.84999985E-02   1.61994080E-06
   9.89999995E-02   1.70589283E-06
   9.95000005E-02   1.79615381E-06
  0.100000001       1.89092498E-06
  0.100500003       1.99041847E-06
  0.101000004       2.09485597E-06
  0.101499997       2.20446987E-06
  0.101999998       2.31950503E-06
  0.102499999       2.44021635E-06
  0.103000000       2.56687304E-06
  0.103500001       2.69975430E-06
  0.104000002       2.83915369E-06
  0.104500003       2.98537589E-06
  0.104999997       3.13873898E-06
  0.105499998       3.29957243E-06
  0.105999999       3.46822003E-06
  0.106500000       3.64503626E-06
  0.107000001       3.83038969E-06
  0.107500002       4.02466230E-06
  0.108000003       4.22824996E-06
  0.108499996       4.44156149E-06
  0.108999997       4.66502161E-06
  0.109499998       4.89907188E-06
  0.109999999       5.14416888E-06
  0.110500000       5.40078963E-06
  0.111000001       5.66943027E-06
  0.111500002       5.95060737E-06
  0.112000003       6.24485983E-06
  0.112499997       6.55275289E-06
  0.112999998       6.87487318E-06
  0.113499999       7.21183551E-06
  0.114000000       7.56428062E-06
  0.114500001       7.93287836E-06
  0.115000002       8.31832676E-06
  0.115500003       8.72135388E-06
  0.115999997       9.14271459E-06
  0.116499998       9.58319379E-06
  0.116999999       1.00436109E-05
  0.117500000       1.05248128E-05
  0.118000001       1.10276733E-05
  0.118500002       1.15531038E-05
  0.119000003       1.21020412E-05
  0.119499996       1.26754576E-05
  0.119999997       1.32743562E-05
  0.120499998       1.38997748E-05
  0.120999999       1.45527874E-05
  0.121500000       1.52345001E-05
  0.122000001       1.59460633E-05
  0.122500002       1.66886621E-05
  0.123000003       1.74635297E-05
  0.123499997       1.82719450E-05
  0.123999998       1.91152249E-05
  0.124499999       1.99947463E-05
  0.125000000       2.09119280E-05
  0.125499994       2.18682562E-05
  0.126000002       2.28652607E-05
  0.126499996       2.39045294E-05
  0.127000004       2.49877157E-05
  0.127499998       2.61165369E-05
  0.128000006       2.72927573E-05
  0.128500000       2.85182177E-05
  0.128999993       2.97948136E-05
  0.129500002       3.11245094E-05
  0.129999995       3.25093388E-05
  0.130500004       3.39513972E-05
  0.130999997       3.54528383E-05
  0.131500006       3.70158996E-05
  0.131999999       3.86428874E-05
  0.132499993       4.03361628E-05
  0.133000001       4.20981742E-05
  0.133499995       4.39314390E-05
  0.134000003       4.58385475E-05
  0.134499997       4.78221955E-05
  0.135000005       4.98851223E-05
  0.135499999       5.20301983E-05
  0.136000007       5.42603375E-05
  0.136500001       5.65785813E-05
  0.136999995       5.89880583E-05
  0.137500003       6.14919845E-05
  0.137999997       6.40936923E-05
  0.138500005       6.67966233E-05
  0.138999999       6.96043135E-05
  0.139500007       7.25204372E-05
  0.140000001       7.55487272E-05
  0.140499994       7.86930832E-05
  0.141000003       8.19575143E-05
  0.141499996       8.53461243E-05
  0.142000005       8.88631475E-05
  0.142499998       9.25129716E-05
  0.143000007       9.63000712E-05
  0.143500000       1.00229045E-04
  0.143999994       1.04304621E-04
  0.144500002       1.08531676E-04
  0.144999996       1.12915201E-04
  0.145500004       1.17460353E-04
  0.145999998       1.22172365E-04
  0.146500006       1.27056643E-04
  0.147000000       1.32118759E-04
  0.147499993       1.37364390E-04
  0.148000002       1.42799385E-04
  0.148499995       1.48429754E-04
  0.149000004       1.54261623E-04
  0.149499997       1.60301322E-04
  0.150000006       1.66555299E-04
  0.150500000       1.73030232E-04
  0.150999993       1.79732902E-04
  0.151500002       1.86670339E-04
  0.151999995       1.93849657E-04
  0.152500004       2.01278206E-04
  0.152999997       2.08963538E-04
  0.153500006       2.16913293E-04
  0.153999999       2.25135387E-04
  0.154499993       2.33637882E-04
  0.155000001       2.42429029E-04
  0.155499995       2.51517311E-04
  0.156000003       2.60911300E-04
  0.156499997       2.70619901E-04
  0.157000005       2.80652108E-04
  0.157499999       2.91017117E-04
  0.158000007       3.01724416E-04
  0.158500001       3.12783581E-04
  0.158999994       3.24204448E-04
  0.159500003       3.35997000E-04
  0.159999996       3.48171481E-04
  0.160500005       3.60738341E-04
  0.160999998       3.73708230E-04
  0.161500007       3.87091975E-04
  0.162000000       4.00900637E-04
  0.162499994       4.15145449E-04
  0.163000003       4.29837964E-04
  0.163499996       4.44989826E-04
  0.164000005       4.60613053E-04
  0.164499998       4.76719637E-04
  0.165000007       4.93322033E-04
  0.165500000       5.10432699E-04
  0.165999994       5.28064556E-04
  0.166500002       5.46230469E-04
  0.166999996       5.64943766E-04
  0.167500004       5.84217778E-04
  0.167999998       6.04066066E-04
  0.168500006       6.24502602E-04
  0.169000000       6.45541295E-04
  0.169499993       6.67196466E-04
  0.170000002       6.89482666E-04
  0.170499995       7.12414389E-04
  0.171000004       7.36006419E-04
  0.171499997       7.60274008E-04
  0.172000006       7.85232347E-04
  0.172499999       8.10896629E-04
  0.172999993       8.37282685E-04
  0.173500001       8.64406175E-04
  0.173999995       8.92282987E-04
  0.174500003       9.20929364E-04
  0.174999997       9.50361544E-04
  0.175500005       9.80596058E-04
  0.175999999       1.01164938E-03
  0.176499993       1.04353845E-03
  0.177000001       1.07628002E-03
  0.177499995       1.10989111E-03
  0.178000003       1.14438881E-03
  0.178499997       1.17979059E-03
  0.179000005       1.21611368E-03
  0.179499999       1.25337555E-03
  0.180000007       1.29159377E-03
  0.180500001       1.33078604E-03
  0.180999994       1.37096993E-03
  0.181500003       1.41216360E-03
  0.181999996       1.45438442E-03
  0.182500005       1.49765029E-03
  0.182999998       1.54197938E-03
  0.183500007       1.58738904E-03
  0.184000000       1.63389766E-03
  0.184499994       1.68152258E-03
  0.185000002       1.73028198E-03
  0.185499996       1.78019365E-03
  0.186000004       1.83127495E-03
  0.186499998       1.88354379E-03
  0.187000006       1.93701743E-03
  0.187500000       1.99171319E-03
  0.187999994       2.04764842E-03
  0.188500002       2.10484047E-03
  0.188999996       2.16330611E-03
  0.189500004       2.22306186E-03
  0.189999998       2.28412449E-03
  0.190500006       2.34651053E-03
  0.191000000       2.41023535E-03
  0.191499993       2.47531570E-03
  0.192000002       2.54176604E-03
  0.192499995       2.60960241E-03
  0.193000004       2.67883879E-03
  0.193499997       2.74949009E-03
  0.194000006       2.82157026E-03
  0.194499999       2.89509352E-03
  0.194999993       2.97007244E-03
  0.195500001       3.04651982E-03
  0.195999995       3.12444801E-03
  0.196500003       3.20386863E-03
  0.196999997       3.28479288E-03
  0.197500005       3.36723099E-03
  0.197999999       3.45119322E-03
  0.198500007       3.53668886E-03
  0.199000001       3.62372654E-03
  0.199499995       3.71231441E-03
  0.200000003       3.80245899E-03
  0.200499997       3.89416702E-03
  0.201000005       3.98744363E-03
  0.201499999       4.08229418E-03
  0.202000007       4.17872239E-03
  0.202500001       4.27673152E-03
  0.202999994       4.37632296E-03
  0.203500003       4.47749766E-03
  0.203999996       4.58025653E-03
  0.204500005       4.68459772E-03
  0.204999998       4.79051936E-03
  0.205500007       4.89801727E-03
  0.206000000       5.00708818E-03
  0.206499994       5.11772605E-03
  0.207000002       5.22992387E-03
  0.207499996       5.34367329E-03
  0.208000004       5.45896543E-03
  0.208499998       5.57578960E-03
  0.209000006       5.69413370E-03
  0.209500000       5.81398327E-03
  0.209999993       5.93532482E-03
  0.210500002       6.05814112E-03
  0.210999995       6.18241495E-03
  0.211500004       6.30812673E-03
  0.211999997       6.43525505E-03
  0.212500006       6.56377710E-03
  0.213000000       6.69366959E-03
  0.213499993       6.82490598E-03
  0.214000002       6.95745740E-03
  0.214499995       7.09129591E-03
  0.215000004       7.22638797E-03
  0.215499997       7.36270286E-03
  0.216000006       7.50020472E-03
  0.216499999       7.63885444E-03
  0.216999993       7.77861569E-03
  0.217500001       7.91944563E-03
  0.217999995       8.06130283E-03
  0.218500003       8.20414163E-03
  0.218999997       8.34791455E-03
  0.219500005       8.49257223E-03
  0.219999999       8.63806438E-03
  0.220500007       8.78433697E-03
  0.221000001       8.93133413E-03
  0.221499994       9.07899998E-03
  0.222000003       9.22727305E-03
  0.222499996       9.37609188E-03
  0.223000005       9.52539034E-03
  0.223499998       9.67510324E-03
  0.224000007       9.82516073E-03
  0.224500000       9.97549295E-03
  0.224999994       1.01260245E-02
  0.225500003       1.02766817E-02
  0.225999996       1.04273865E-02
  0.226500005       1.05780559E-02
  0.226999998       1.07286097E-02
  0.227500007       1.08789606E-02
  0.228000000       1.10290227E-02
  0.228499994       1.11787040E-02
  0.229000002       1.13279149E-02
  0.229499996       1.14765586E-02
  0.230000004       1.16245383E-02
  0.230499998       1.17717562E-02
  0.231000006       1.19181089E-02
  0.231500000       1.20634940E-02
  0.231999993       1.22078042E-02
  0.232500002       1.23509318E-02
  0.232999995       1.24927657E-02
  0.233500004       1.26331933E-02
  0.233999997       1.27720991E-02
  0.234500006       1.29093677E-02
  0.234999999       1.30448779E-02
  0.235499993       1.31785106E-02
  0.236000001       1.33101409E-02
  0.236499995       1.34396451E-02
  0.237000003       1.35668954E-02
  0.237499997       1.36917634E-02
  0.238000005       1.38141159E-02
  0.238499999       1.39338206E-02
  0.238999993       1.40507454E-02
  0.239500001       1.41647514E-02
  0.239999995       1.42757045E-02
  0.240500003       1.43834641E-02
  0.240999997       1.44878896E-02
  0.241500005       1.45888384E-02
  0.241999999       1.46861672E-02
  0.242500007       1.47797344E-02
  0.243000001       1.48693919E-02
  0.243499994       1.49549935E-02
  0.244000003       1.50363920E-02
  0.244499996       1.51134385E-02
  0.245000005       1.51859829E-02
  0.245499998       1.52538782E-02
  0.246000007       1.53169716E-02
  0.246500000       1.53751122E-02
  0.246999994       1.54281473E-02
  0.247500002       1.54759297E-02
  0.247999996       1.55183058E-02
  0.248500004       1.55551229E-02
  0.248999998       1.55862290E-02
  0.249500006       1.56114744E-02
  0.250000000       1.56307071E-02
  0.250499994       1.56437755E-02
  0.250999987       1.56505331E-02
  0.251500010       1.56508274E-02
  0.252000004       1.56445149E-02
  0.252499998       1.56314466E-02
  0.252999991       1.56114753E-02
  0.253500015       1.55844623E-02
  0.254000008       1.55502614E-02
  0.254500002       1.55087337E-02
  0.254999995       1.54597396E-02
  0.255499989       1.54031413E-02
  0.256000012       1.53388064E-02
  0.256500006       1.52666029E-02
  0.256999999       1.51864020E-02
  0.257499993       1.50980745E-02
  0.257999986       1.50014954E-02
  0.258500010       1.48965437E-02
  0.259000003       1.47831030E-02
  0.259499997       1.46610560E-02
  0.259999990       1.45302918E-02
  0.260500014       1.43907014E-02
  0.261000007       1.42421816E-02
  0.261500001       1.40846306E-02
  0.261999995       1.39179546E-02
  0.262499988       1.37420576E-02
  0.263000011       1.35568539E-02
  0.263500005       1.33622605E-02
  0.263999999       1.31581984E-02
  0.264499992       1.29445931E-02
  0.264999986       1.27213784E-02
  0.265500009       1.24884900E-02
  0.266000003       1.22458711E-02
  0.266499996       1.19934697E-02
  0.266999990       1.17312409E-02
  0.267500013       1.14591438E-02
  0.268000007       1.11771440E-02
  0.268500000       1.08852154E-02
  0.268999994       1.05833355E-02
  0.269499987       1.02714906E-02
  0.270000011       9.94967204E-03
  0.270500004       9.61787719E-03
  0.270999998       9.27611347E-03
  0.271499991       8.92439298E-03
  0.272000015       8.56273435E-03
  0.272500008       8.19116458E-03
  0.273000002       7.80971674E-03
  0.273499995       7.41843227E-03
  0.273999989       7.01736007E-03
  0.274500012       6.60655648E-03
  0.275000006       6.18608436E-03
  0.275500000       5.75601682E-03
  0.275999993       5.31643350E-03
  0.276499987       4.86742100E-03
  0.277000010       4.40907665E-03
  0.277500004       3.94150382E-03
  0.277999997       3.46481451E-03
  0.278499991       2.97913002E-03
  0.279000014       2.48457934E-03
  0.279500008       1.98130030E-03
  0.280000001       1.46943843E-03
  0.280499995       9.49148613E-04
  0.280999988       4.20593395E-04
  0.281500012      -1.16055868E-04
  0.282000005      -6.60619524E-04
  0.282499999      -1.21290877E-03
  0.282999992      -1.77272817E-03
  0.283499986      -2.33987323E-03
  0.284000009      -2.91413069E-03
  0.284500003      -3.49528017E-03
  0.284999996      -4.08309139E-03
  0.285499990      -4.67732875E-03
  0.286000013      -5.27774682E-03
  0.286500007      -5.88409277E-03
  0.287000000      -6.49610627E-03
  0.287499994      -7.11351819E-03
  0.287999988      -7.73605425E-03
  0.288500011      -8.36343039E-03
  0.289000005      -8.99535790E-03
  0.289499998      -9.63153876E-03
  0.289999992      -1.02716647E-02
  0.290499985      -1.09154275E-02
  0.291000009      -1.15625076E-02
  0.291500002      -1.22125801E-02
  0.291999996      -1.28653133E-02
  0.292499989      -1.35203684E-02
  0.293000013      -1.41774016E-02
  0.293500006      -1.48360599E-02
  0.294000000      -1.54959895E-02
  0.294499993      -1.61568280E-02
  0.294999987      -1.68182086E-02
  0.295500010      -1.74797568E-02
  0.296000004      -1.81411002E-02
  0.296499997      -1.88018512E-02
  0.296999991      -1.94616280E-02
  0.297500014      -2.01200414E-02
  0.298000008      -2.07766965E-02
  0.298500001      -2.14311946E-02
  0.298999995      -2.20831428E-02
  0.299499989      -2.27321368E-02
  0.300000012      -2.33777668E-02
  0.300500005      -2.40196344E-02
  0.300999999      -2.46573277E-02
  0.301499993      -2.52904389E-02
  0.301999986      -2.59185582E-02
  0.302500010      -2.65412740E-02
  0.303000003      -2.71581747E-02
  0.303499997      -2.77688429E-02
  0.303999990      -2.83728708E-02
  0.304500014      -2.89698467E-02
  0.305000007      -2.95593608E-02
  0.305500001      -3.01409997E-02
  0.305999994      -3.07143554E-02
  0.306499988      -3.12790237E-02
  0.307000011      -3.18345986E-02
  0.307500005      -3.23806815E-02
  0.307999998      -3.29168662E-02
  0.308499992      -3.34427617E-02
  0.308999985      -3.39579731E-02
  0.309500009      -3.44621167E-02
  0.310000002      -3.49548049E-02
  0.310499996      -3.54356579E-02
  0.310999990      -3.59043069E-02
  0.311500013      -3.63603793E-02
  0.312000006      -3.68035138E-02
  0.312500000      -3.72333601E-02
  0.312999994      -3.76495607E-02
  0.313499987      -3.80517840E-02
  0.314000010      -3.84396911E-02
  0.314500004      -3.88129577E-02
  0.314999998      -3.91712673E-02
  0.315499991      -3.95143032E-02
  0.316000015      -3.98417786E-02
  0.316500008      -4.01533842E-02
  0.317000002      -4.04488482E-02
  0.317499995      -4.07278985E-02
  0.317999989      -4.09902669E-02
  0.318500012      -4.12357040E-02
  0.319000006      -4.14639637E-02
  0.319499999      -4.16748226E-02
  0.319999993      -4.18680497E-02
  0.320499986      -4.20434326E-02
  0.321000010      -4.22007777E-02
  0.321500003      -4.23398912E-02
  0.321999997      -4.24606055E-02
  0.322499990      -4.25627530E-02
  0.323000014      -4.26461808E-02
  0.323500007      -4.27107513E-02
  0.324000001      -4.27563339E-02
  0.324499995      -4.27828208E-02
  0.324999988      -4.27901112E-02
  0.325500011      -4.27781232E-02
  0.326000005      -4.27467786E-02
  0.326499999      -4.26960215E-02
  0.326999992      -4.26258110E-02
  0.327499986      -4.25361134E-02
  0.328000009      -4.24269103E-02
  0.328500003      -4.22982015E-02
  0.328999996      -4.21500020E-02
  0.329499990      -4.19823304E-02
  0.330000013      -4.17952351E-02
  0.330500007      -4.15887684E-02
  0.331000000      -4.13629897E-02
  0.331499994      -4.11179923E-02
  0.331999987      -4.08538654E-02
  0.332500011      -4.05707248E-02
  0.333000004      -4.02686894E-02
  0.333499998      -3.99478972E-02
  0.333999991      -3.96085046E-02
  0.334500015      -3.92506756E-02
  0.335000008      -3.88745889E-02
  0.335500002      -3.84804383E-02
  0.335999995      -3.80684324E-02
  0.336499989      -3.76387946E-02
  0.337000012      -3.71917449E-02
  0.337500006      -3.67275439E-02
  0.338000000      -3.62464525E-02
  0.338499993      -3.57487313E-02
  0.338999987      -3.52346711E-02
  0.339500010      -3.47045697E-02
  0.340000004      -3.41587327E-02
  0.340499997      -3.35974842E-02
  0.340999991      -3.30211520E-02
  0.341500014      -3.24300826E-02
  0.342000008      -3.18246298E-02
  0.342500001      -3.12051568E-02
  0.342999995      -3.05720400E-02
  0.343499988      -2.99256649E-02
  0.344000012      -2.92664282E-02
  0.344500005      -2.85947323E-02
  0.344999999      -2.79109925E-02
  0.345499992      -2.72156317E-02
  0.345999986      -2.65090819E-02
  0.346500009      -2.57917810E-02
  0.347000003      -2.50641759E-02
  0.347499996      -2.43267231E-02
  0.347999990      -2.35798825E-02
  0.348500013      -2.28241235E-02
  0.349000007      -2.20599156E-02
  0.349500000      -2.12877430E-02
  0.349999994      -2.05080863E-02
  0.350499988      -1.97214354E-02
  0.351000011      -1.89282838E-02
  0.351500005      -1.81291271E-02
  0.351999998      -1.73244663E-02
  0.352499992      -1.65148042E-02
  0.352999985      -1.57006439E-02
  0.353500009      -1.48824966E-02
  0.354000002      -1.40608698E-02
  0.354499996      -1.32362740E-02
  0.354999989      -1.24092214E-02
  0.355500013      -1.15802241E-02
  0.356000006      -1.07497945E-02
  0.356500000      -9.91844572E-03
  0.356999993      -9.08668898E-03
  0.357499987      -8.25503655E-03
  0.358000010      -7.42399693E-03
  0.358500004      -6.59407768E-03
  0.358999997      -5.76578360E-03
  0.359499991      -4.93961759E-03
  0.360000014      -4.11607930E-03
  0.360500008      -3.29566351E-03
  0.361000001      -2.47886125E-03
  0.361499995      -1.66615925E-03
  0.361999989      -8.58038140E-04
  0.362500012      -5.49734468E-05
  0.363000005       7.42565375E-04
  0.363499999       1.53411611E-03
  0.363999993       2.31922371E-03
  0.364499986       3.09743872E-03
  0.365000010       3.86832235E-03
  0.365500003       4.63144016E-03
  0.365999997       5.38636977E-03
  0.366499990       6.13269256E-03
  0.367000014       6.87000388E-03
  0.367500007       7.59790326E-03
  0.368000001       8.31600279E-03
  0.368499994       9.02392250E-03
  0.368999988       9.72129032E-03
  0.369500011       1.04077477E-02
  0.370000005       1.10829426E-02
  0.370499998       1.17465341E-02
  0.370999992       1.23981927E-02
  0.371499985       1.30375968E-02
  0.372000009       1.36644356E-02
  0.372500002       1.42784156E-02
  0.372999996       1.48792472E-02
  0.373499990       1.54666575E-02
  0.374000013       1.60403810E-02
  0.374500006       1.66001655E-02
  0.375000000       1.71457753E-02
  0.375499994       1.76769812E-02
  0.375999987       1.81935709E-02
  0.376500010       1.86953414E-02
  0.377000004       1.91821046E-02
  0.377499998       1.96536873E-02
  0.377999991       2.01099273E-02
  0.378500015       2.05506738E-02
  0.379000008       2.09757909E-02
  0.379500002       2.13851575E-02
  0.379999995       2.17786618E-02
  0.380499989       2.21562050E-02
  0.381000012       2.25177035E-02
  0.381500006       2.28630863E-02
  0.381999999       2.31922884E-02
  0.382499993       2.35052686E-02
  0.382999986       2.38019843E-02
  0.383500010       2.40824185E-02
  0.384000003       2.43465547E-02
  0.384499997       2.45943982E-02
  0.384999990       2.48259548E-02
  0.385500014       2.50412505E-02
  0.386000007       2.52403226E-02
  0.386500001       2.54232176E-02
  0.386999995       2.55899932E-02
  0.387499988       2.57407166E-02
  0.388000011       2.58754734E-02
  0.388500005       2.59943511E-02
  0.388999999       2.60974560E-02
  0.389499992       2.61848997E-02
  0.389999986       2.62568109E-02
  0.390500009       2.63133217E-02
  0.391000003       2.63545755E-02
  0.391499996       2.63807308E-02
  0.391999990       2.63919514E-02
  0.392500013       2.63884105E-02
  0.393000007       2.63702925E-02
  0.393500000       2.63377875E-02
  0.393999994       2.62910984E-02
  0.394499987       2.62304340E-02
  0.395000011       2.61560101E-02
  0.395500004       2.60680523E-02
  0.395999998       2.59667877E-02
  0.396499991       2.58524586E-02
  0.397000015       2.57253069E-02
  0.397500008       2.55855843E-02
  0.398000002       2.54335478E-02
  0.398499995       2.52694618E-02
  0.398999989       2.50935908E-02
  0.399500012       2.49062087E-02
  0.400000006       2.47075967E-02
  0.400500000       2.44980343E-02
  0.400999993       2.42778119E-02
  0.401499987       2.40472183E-02
  0.402000010       2.38065496E-02
  0.402500004       2.35561077E-02
  0.402999997       2.32961960E-02
  0.403499991       2.30271164E-02
  0.404000014       2.27491818E-02
  0.404500008       2.24627033E-02
  0.405000001       2.21679937E-02
  0.405499995       2.18653716E-02
  0.405999988       2.15551537E-02
  0.406500012       2.12376602E-02
  0.407000005       2.09132135E-02
  0.407499999       2.05821320E-02
  0.407999992       2.02447381E-02
  0.408499986       1.99013520E-02
  0.409000009       1.95522979E-02
  0.409500003       1.91978980E-02
  0.409999996       1.88384708E-02
  0.410499990       1.84743330E-02
  0.411000013       1.81058086E-02
  0.411500007       1.77332107E-02
  0.412000000       1.73568521E-02
  0.412499994       1.69770494E-02
  0.412999988       1.65941138E-02
  0.413500011       1.62083488E-02
  0.414000005       1.58200674E-02
  0.414499998       1.54295675E-02
  0.414999992       1.50371520E-02
  0.415499985       1.46431187E-02
  0.416000009       1.42477639E-02
  0.416500002       1.38513781E-02
  0.416999996       1.34542519E-02
  0.417499989       1.30566694E-02
  0.418000013       1.26589136E-02
  0.418500006       1.22612622E-02
  0.419000000       1.18639907E-02
  0.419499993       1.14673693E-02
  0.419999987       1.10716652E-02
  0.420500010       1.06771402E-02
  0.421000004       1.02840522E-02
  0.421499997       9.89265554E-03
  0.421999991       9.50319786E-03
  0.422500014       9.11592413E-03
  0.423000008       8.73107184E-03
  0.423500001       8.34887568E-03
  0.423999995       7.96956196E-03
  0.424499989       7.59335421E-03
  0.425000012       7.22046988E-03
  0.425500005       6.85112132E-03
  0.425999999       6.48551434E-03
  0.426499993       6.12384966E-03
  0.426999986       5.76632284E-03
  0.427500010       5.41312341E-03
  0.428000003       5.06443484E-03