   0.00000000       4.09978607E-10
   5.00000024E-04   1.21479504E-09
   1.00000005E-03   1.94823135E-09
   1.50000001E-03   2.53450483E-09
   2.00000009E-03   2.91370283E-09
   2.49999994E-03   3.04626768E-09
   3.00000003E-03   2.91390689E-09
   3.50000011E-03   2.51652943E-09
   4.00000019E-03   1.86548799E-09
   4.49999981E-03   9.73990444E-10
   4.99999989E-03  -1.53936724E-10
   5.49999997E-03  -1.53417989E-09
   6.00000005E-03  -3.21103788E-09
   6.50000013E-03  -5.26160404E-09
   7.00000022E-03  -7.79444154E-09
   7.49999983E-03  -1.09414824E-08
   8.00000038E-03  -1.48427848E-08
   8.50000046E-03  -1.96246237E-08
   8.99999961E-03  -2.53722945E-08
   9.49999969E-03  -3.20997913E-08
   9.99999978E-03  -3.97193389E-08
   1.04999999E-02  -4.80141296E-08
   1.09999999E-02  -5.66179175E-08
   1.15000000E-02  -6.50049046E-08
   1.20000001E-02  -7.24929023E-08
   1.25000002E-02  -7.82618983E-08
   1.30000003E-02  -8.13890040E-08
   1.35000004E-02  -8.08992979E-08
   1.40000004E-02  -7.58308829E-08
   1.44999996E-02  -6.53104806E-08
   1.49999997E-02  -4.86351475E-08
   1.54999997E-02  -2.53540833E-08
   1.60000008E-02   4.65591166E-09
   1.64999999E-02   4.11280219E-08
   1.70000009E-02   8.33625791E-08
   1.75000001E-02   1.30209244E-07
   1.79999992E-02   1.80078558E-07
   1.85000002E-02   2.30985123E-07
   1.89999994E-02   2.80622544E-07
   1.95000004E-02   3.26468040E-07
   1.99999996E-02   3.65912115E-07
   2.05000006E-02   3.96406364E-07
   2.09999997E-02   4.15621116E-07
   2.15000007E-02   4.21602380E-07
   2.19999999E-02   4.12917643E-07
   2.25000009E-02   3.88780080E-07
   2.30000000E-02   3.49141033E-07
   2.34999992E-02   2.94742478E-07
   2.40000002E-02   2.27124005E-07
   2.44999994E-02   1.48580810E-07
   2.50000004E-02   6.20729992E-08
   2.54999995E-02  -2.89100903E-08
   2.60000005E-02  -1.20524021E-07
   2.64999997E-02  -2.08771837E-07
   2.70000007E-02  -2.89723062E-07
   2.74999999E-02  -3.59735196E-07
   2.80000009E-02  -4.15663209E-07
   2.85000000E-02  -4.55043050E-07
   2.89999992E-02  -4.76236238E-07
   2.95000002E-02  -4.78524385E-07
   2.99999993E-02  -4.62146971E-07
   3.05000003E-02  -4.28278184E-07
   3.09999995E-02  -3.78943014E-07
   3.15000005E-02  -3.16877532E-07
   3.20000015E-02  -2.45341852E-07
   3.24999988E-02  -1.67897809E-07
   3.29999998E-02  -8.81665585E-08
   3.35000008E-02  -9.58221502E-09
   3.40000018E-02   6.48407479E-08
   3.44999991E-02   1.32709800E-07
   3.50000001E-02   1.92411875E-07
   3.55000012E-02   2.43213890E-07
   3.59999985E-02   2.85298341E-07
   3.64999995E-02   3.19730475E-07
   3.70000005E-02   3.48358640E-07
   3.75000015E-02   3.73654473E-07
   3.79999988E-02   3.98502976E-07
   3.84999998E-02   4.25957950E-07
   3.90000008E-02   4.58980480E-07
   3.95000018E-02   5.00179169E-07
   3.99999991E-02   5.51572612E-07
   4.05000001E-02   6.14392604E-07
   4.10000011E-02   6.88943089E-07
   4.14999984E-02   7.74527905E-07
   4.19999994E-02   8.69455505E-07
   4.25000004E-02   9.71121494E-07
   4.30000015E-02   1.07616620E-06
   4.34999987E-02   1.18069784E-06
   4.39999998E-02   1.28056774E-06
   4.45000008E-02   1.37167876E-06
   4.50000018E-02   1.45030560E-06
   4.54999991E-02   1.51340396E-06
   4.60000001E-02   1.55888677E-06
   4.65000011E-02   1.58584476E-06
   4.69999984E-02   1.59469607E-06
   4.74999994E-02   1.58724936E-06
   4.80000004E-02   1.56667477E-06
   4.85000014E-02   1.53738051E-06
   4.89999987E-02   1.50480025E-06
   4.94999997E-02   1.47510571E-06
   5.00000007E-02   1.45485808E-06
   5.05000018E-02   1.45062268E-06
   5.09999990E-02   1.46857201E-06
   5.15000001E-02   1.51410165E-06
   5.20000011E-02   1.59149022E-06
   5.24999984E-02   1.70362080E-06
   5.29999994E-02   1.85178999E-06
   5.35000004E-02   2.03561558E-06
   5.40000014E-02   2.25305303E-06
   5.44999987E-02   2.50052199E-06
   5.49999997E-02   2.77313529E-06
   5.55000007E-02   3.06501988E-06
   5.60000017E-02   3.36970788E-06
   5.64999990E-02   3.68057476E-06
   5.70000000E-02   3.99129522E-06
   5.75000010E-02   4.29628835E-06
   5.79999983E-02   4.59112380E-06
   5.84999993E-02   4.87285888E-06
   5.90000004E-02   5.14028852E-06
   5.95000014E-02   5.39408757E-06
   5.99999987E-02   5.63683761E-06
   6.04999997E-02   5.87293607E-06
   6.10000007E-02   6.10838879E-06
   6.15000017E-02   6.35050674E-06
   6.19999990E-02   6.60752175E-06
   6.25000000E-02   6.88814453E-06
   6.30000010E-02   7.20110347E-06
   6.35000020E-02   7.55467772E-06
   6.40000030E-02   7.95627147E-06
   6.44999966E-02   8.41205292E-06
   6.49999976E-02   8.92667413E-06
   6.54999986E-02   9.50309186E-06
   6.59999996E-02   1.01425203E-05
   6.65000007E-02   1.08444810E-05
   6.70000017E-02   1.16069814E-05
   6.75000027E-02   1.24267854E-05
   6.80000037E-02   1.32997775E-05
   6.84999973E-02   1.42213676E-05
   6.89999983E-02   1.51869499E-05
   6.94999993E-02   1.61923508E-05
   7.00000003E-02   1.72342425E-05
   7.05000013E-02   1.83105021E-05
   7.10000023E-02   1.94205113E-05
   7.15000033E-02   2.05653359E-05
   7.19999969E-02   2.17478082E-05
   7.24999979E-02   2.29724992E-05
   7.29999989E-02   2.42455917E-05
   7.34999999E-02   2.55746490E-05
   7.40000010E-02   2.69683042E-05
   7.45000020E-02   2.84359139E-05
   7.50000030E-02   2.99871626E-05
   7.54999965E-02   3.16316837E-05
   7.59999976E-02   3.33786993E-05
   7.64999986E-02   3.52367060E-05
   7.69999996E-02   3.72132527E-05
   7.75000006E-02   3.93148002E-05
   7.80000016E-02   4.15466602E-05
   7.85000026E-02   4.39130636E-05
   7.90000036E-02   4.64172917E-05
   7.94999972E-02   4.90618986E-05
   7.99999982E-02   5.18490342E-05
   8.04999992E-02   5.47807649E-05
   8.10000002E-02   5.78594518E-05
   8.15000013E-02   6.10880743E-05
   8.20000023E-02   6.44706233E-05
   8.25000033E-02   6.80123048E-05
   8.29999968E-02   7.17197909E-05
   8.34999979E-02   7.56013687E-05
   8.39999989E-02   7.96669774E-05
   8.44999999E-02   8.39281347E-05
   8.50000009E-02   8.83978428E-05
   8.55000019E-02   9.30904425E-05
   8.60000029E-02   9.80213154E-05
   8.64999965E-02   1.03206650E-04
   8.69999975E-02   1.08663138E-04
   8.74999985E-02   1.14407689E-04
   8.79999995E-02   1.20457211E-04
   8.85000005E-02   1.26828483E-04
   8.90000015E-02   1.33537949E-04
   8.95000026E-02   1.40601696E-04
   9.00000036E-02   1.48035499E-04
   9.04999971E-02   1.55854883E-04
   9.09999982E-02   1.64075362E-04
   9.14999992E-02   1.72712491E-04
   9.20000002E-02   1.81782263E-04
   9.25000012E-02   1.91301384E-04
   9.30000022E-02   2.01287447E-04
   9.35000032E-02   2.11759150E-04
   9.39999968E-02   2.22736635E-04
   9.44999978E-02   2.34241597E-04
   9.49999988E-02   2.46297306E-04
   9.54999998E-02   2.58928805E-04
   9.60000008E-02   2.72162782E-04
   9.65000018E-02   2.86027469E-04
   9.70000029E-02   3.00552754E-04
   9.74999964E-02   3.15769663E-04
   9.79999974E-02   3.31710529E-04
   9.84999985E-02   3.48408706E-04
   9.89999995E-02   3.65898450E-04
   9.95000005E-02   3.84214887E-04
  0.100000001       4.03393962E-04
  0.100500003       4.23472578E-04
  0.101000004       4.44488600E-04
  0.101499997       4.66480880E-04
  0.101999998       4.89489641E-04
  0.102499999       5.13556646E-04
  0.103000000       5.38725697E-04
  0.103500001       5.65042312E-04
  0.104000002       5.92554687E-04
  0.104500003       6.21313811E-04
  0.104999997       6.51373295E-04
  0.105499998       6.82789483E-04
  0.105999999       7.15622096E-04
  0.106500000       7.49933592E-04
  0.107000001       7.85789394E-04
  0.107500002       8.23257782E-04
  0.108000003       8.62409768E-04
  0.108499996       9.03318287E-04
  0.108999997       9.46058659E-04
  0.109499998       9.90708126E-04
  0.109999999       1.03734573E-03
  0.110500000       1.08605181E-03
  0.111000001       1.13690854E-03
  0.111500002       1.18999963E-03
  0.112000003       1.24541053E-03
  0.112499997       1.30322867E-03
  0.112999998       1.36354368E-03
  0.113499999       1.42644742E-03
  0.114000000       1.49203558E-03
  0.114500001       1.56040676E-03
  0.115000002       1.63166446E-03
  0.115500003       1.70591637E-03
  0.115999997       1.78327481E-03
  0.116499998       1.86385866E-03
  0.116999999       1.94779143E-03
  0.117500000       2.03520339E-03
  0.118000001       2.12623063E-03
  0.118500002       2.22101551E-03
  0.119000003       2.31970521E-03
  0.119499996       2.42245337E-03
  0.119999997       2.52941973E-03
  0.120499998       2.64076772E-03
  0.120999999       2.75666593E-03
  0.121500000       2.87728687E-03
  0.122000001       3.00280727E-03
  0.122500002       3.13340756E-03
  0.123000003       3.26927169E-03
  0.123499997       3.41058709E-03
  0.123999998       3.55754513E-03
  0.124499999       3.71034094E-03
  0.125000000       3.86917521E-03
  0.125499994       4.03425330E-03
  0.126000002       4.20578616E-03
  0.126499996       4.38399054E-03
  0.127000004       4.56908904E-03
  0.127499998       4.76131355E-03
  0.128000006       4.96090436E-03
  0.128500000       5.16810967E-03
  0.128999993       5.38318744E-03
  0.129500002       5.60640497E-03
  0.129999995       5.83803933E-03
  0.130500004       6.07838016E-03
  0.130999997       6.32772362E-03
  0.131500006       6.58637751E-03
  0.131999999       6.85465615E-03
  0.132499993       7.13288411E-03
  0.133000001       7.42139714E-03
  0.133499995       7.72053562E-03
  0.134000003       8.03064927E-03
  0.134499997       8.35209433E-03
  0.135000005       8.68523493E-03
  0.135499999       9.03044082E-03
  0.136000007       9.38808825E-03
  0.136500001       9.75856092E-03
  0.136999995       1.01422481E-02
  0.137500003       1.05395485E-02
  0.137999997       1.09508689E-02
  0.138500005       1.13766268E-02
  0.138999999       1.18172476E-02
  0.139500007       1.22731682E-02
  0.140000001       1.27448384E-02
  0.140499994       1.32327145E-02
  0.141000003       1.37372687E-02
  0.141499996       1.42589854E-02
  0.142000005       1.47983646E-02
  0.142499998       1.53559186E-02
  0.143000007       1.59321688E-02
  0.143500000       1.65276546E-02
  0.143999994       1.71429254E-02
  0.144500002       1.77785475E-02
  0.144999996       1.84350964E-02
  0.145500004       1.91131625E-02
  0.145999998       1.98133420E-02
  0.146500006       2.05362365E-02
  0.147000000       2.12824643E-02
  0.147499993       2.20526475E-02
  0.148000002       2.28474233E-02
  0.148499995       2.36674398E-02
  0.149000004       2.45133527E-02
  0.149499997       2.53858194E-02
  0.150000006       2.62855124E-02
  0.150500000       2.72131078E-02
  0.150999993       2.81692985E-02
  0.151500002       2.91547906E-02
  0.151999995       3.01702879E-02
  0.152500004       3.12165171E-02
  0.152999997       3.22942100E-02
  0.153500006       3.34041119E-02
  0.153999999       3.45469788E-02
  0.154499993       3.57235894E-02
  0.155000001       3.69347148E-02
  0.155499995       3.81811522E-02
  0.156000003       3.94636951E-02
  0.156499997       4.07831594E-02
  0.157000005       4.21403684E-02
  0.157499999       4.35361527E-02
  0.158000007       4.49713506E-02
  0.158500001       4.64468040E-02
  0.158999994       4.79633622E-02
  0.159500003       4.95218933E-02
  0.159999996       5.11232652E-02
  0.160500005       5.27683385E-02
  0.160999998       5.44579774E-02
  0.161500007       5.61930537E-02
  0.162000000       5.79744503E-02
  0.162499994       5.98030314E-02
  0.163000003       6.16796836E-02
  0.163499996       6.36052787E-02
  0.164000005       6.55807033E-02
  0.164499998       6.76068217E-02
  0.165000007       6.96845353E-02
  0.165500000       7.18147084E-02
  0.165999994       7.39982352E-02
  0.166500002       7.62359798E-02
  0.166999996       7.85287991E-02
  0.167500004       8.08775797E-02
  0.167999998       8.32831860E-02
  0.168500006       8.57464969E-02
  0.169000000       8.82683620E-02
  0.169499993       9.08496231E-02
  0.170000002       9.34911221E-02
  0.170499995       9.61936787E-02
  0.171000004       9.89580899E-02
  0.171499997      0.101785176    
  0.172000006      0.104675725    
  0.172499999      0.107630484    
  0.172999993      0.110650197    
  0.173500001      0.113735616    
  0.173999995      0.116887450    
  0.174500003      0.120106377    
  0.174999997      0.123393066    
  0.175500005      0.126748130    
  0.175999999      0.130172148    
  0.176499993      0.133665681    
  0.177000001      0.137229279    
  0.177499995      0.140863448    
  0.178000003      0.144568592    
  0.178499997      0.148345172    
  0.179000005      0.152193621    
  0.179499999      0.156114280    
  0.180000007      0.160107464    
  0.180500001      0.164173454    
  0.180999994      0.168312490    
  0.181500003      0.172524810    
  0.181999996      0.176810518    
  0.182500005      0.181169778    
  0.182999998      0.185602605    
  0.183500007      0.190108985    
  0.184000000      0.194688886    
  0.184499994      0.199342132    
  0.185000002      0.204068586    
  0.185499996      0.208867952    
  0.186000004      0.213739857    
  0.186499998      0.218683913    
  0.187000006      0.223699629    
  0.187500000      0.228786439    
  0.187999994      0.233943641    
  0.188500002      0.239170447    
  0.188999996      0.244466081    
  0.189500004      0.249829695    
  0.189999998      0.255260259    
  0.190500006      0.260756671    
  0.191000000      0.266317785    
  0.191499993      0.271942317    
  0.192000002      0.277628899    
  0.192499995      0.283376068    
  0.193000004      0.289182216    
  0.193499997      0.295045704    
  0.194000006      0.300964743    
  0.194499999      0.306937456    
  0.194999993      0.312961876    
  0.195500001      0.319035977    
  0.195999995      0.325157583    
  0.196500003      0.331324339    
  0.196999997      0.337533802    
  0.197500005      0.343783438    
  0.197999999      0.350070447    
  0.198500007      0.356392086    
  0.199000001      0.362745374    
  0.199499995      0.369127274    
  0.200000003      0.375534475    
  0.200499997      0.381963640    
  0.201000005      0.388411224    
  0.201499999      0.394873559    
  0.202000007      0.401346892    
  0.202500001      0.407827079    
  0.202999994      0.414310038    
  0.203500003      0.420791447    
  0.203999996      0.427266985    
  0.204500005      0.433732122    
  0.204999998      0.440182060    
  0.205500007      0.446611941    
  0.206000000      0.453016669    
  0.206499994      0.459391057    
  0.207000002      0.465729773    
  0.207499996      0.472027570    
  0.208000004      0.478278786    
  0.208499998      0.484477669    
  0.209000006      0.490618438    
  0.209500000      0.496695101    
  0.209999993      0.502701402    
  0.210500002      0.508630931    
  0.210999995      0.514477313    
  0.211500004      0.520233929    
  0.211999997      0.525894046    
  0.212500006      0.531450689    
  0.213000000      0.536896586    
  0.213499993      0.542224646    
  0.214000002      0.547427416    
  0.214499995      0.552497447    
  0.215000004      0.557426631    
  0.215499997      0.562206924    
  0.216000006      0.566830456    
  0.216499999      0.571288943    
  0.216999993      0.575574100    
  0.217500001      0.579677463    
  0.217999995      0.583590508    
  0.218500003      0.587304652    
  0.218999997      0.590811133    
  0.219500005      0.594101250    
  0.219999999      0.597166121    
  0.220500007      0.599996924    
  0.221000001      0.602584600    
  0.221499994      0.604920089    
  0.222000003      0.606994092    
  0.222499996      0.608797371    
  0.223000005      0.610320568    
  0.223499998      0.611554146    
  0.224000007      0.612488687    
  0.224500000      0.613114715    
  0.224999994      0.613422632    
  0.225500003      0.613402843    
  0.225999996      0.613045573    
  0.226500005      0.612341166    
  0.226999998      0.611280024    
  0.227500007      0.609852135    
  0.228000000      0.608047664    
  0.228499994      0.605856776    
  0.229000002      0.603269875    
  0.229499996      0.600277245    
  0.230000004      0.596869290    
  0.230499998      0.593036413    
  0.231000006      0.588769138    
  0.231500000      0.584058166    
  0.231999993      0.578894317    
  0.232500002      0.573268473    
  0.232999995      0.567171752    
  0.233500004      0.560595512    
  0.233999997      0.553530812    
  0.234500006      0.545969307    
  0.234999999      0.537902832    
  0.235499993      0.529322982    
  0.236000001      0.520221949    
  0.236499995      0.510592043    
  0.237000003      0.500425696    
  0.237499997      0.489715725    
  0.238000005      0.478455156    
  0.238499999      0.466637045    
  0.238999993      0.454254866    
  0.239500001      0.441302329    
  0.239999995      0.427773356    
  0.240500003      0.413662016    
  0.240999997      0.398962647    
  0.241500005      0.383670181    
  0.241999999      0.367779851    
  0.242500007      0.351287246    
  0.243000001      0.334188551    
  0.243499994      0.316480309    
  0.244000003      0.298159599    
  0.244499996      0.279223412    
  0.245000005      0.259669453    
  0.245499998      0.239495978    
  0.246000007      0.218701616    
  0.246500000      0.197285637    
  0.246999994      0.175247952    
  0.247500002      0.152588829    
  0.247999996      0.129308909    
  0.248500004      0.105409376    
  0.248999998       8.08921158E-02
  0.249500006       5.57593293E-02
  0.250000000       3.00136413E-02
  0.250499994       3.65830935E-03
  0.250999987      -2.33027078E-02
  0.251500010      -5.08648716E-02
  0.252000004      -7.90231749E-02
  0.252499998     -0.107771724    
  0.252999991     -0.137104034    
  0.253500015     -0.167013064    
  0.254000008     -0.197491035    
  0.254500002     -0.228529558    
  0.254999995     -0.260119498    
  0.255499989     -0.292251229    
  0.256000012     -0.324914306    
  0.256500006     -0.358097762    
  0.256999999     -0.391789943    
  0.257499993     -0.425978124    
  0.257999986     -0.460649163    
  0.258500010     -0.495789140    
  0.259000003     -0.531383634    
  0.259499997     -0.567417562    
  0.259999990     -0.603874981    
  0.260500014     -0.640739262    
  0.261000007     -0.677993417    
  0.261500001     -0.715619445    
  0.261999995     -0.753598750    
  0.262499988     -0.791912138    
  0.263000011     -0.830539823    
  0.263500005     -0.869461179    
  0.263999999     -0.908654988    
  0.264499992     -0.948099613    
  0.264999986     -0.987772286    
  0.265500009      -1.02764976    
  0.266000003      -1.06770825    
  0.266499996      -1.10792327    
  0.266999990      -1.14826906    
  0.267500013      -1.18872011    
  0.268000007      -1.22924995    
  0.268500000      -1.26983178    
  0.268999994      -1.31043768    
  0.269499987      -1.35103989    
  0.270000011      -1.39160979    
  0.270500004      -1.43211794    
  0.270999998      -1.47253501    
  0.271499991      -1.51283097    
  0.272000015      -1.55297518    
  0.272500008      -1.59293675    
  0.273000002      -1.63268471    
  0.273499995      -1.67218757    
  0.273999989      -1.71141315    
  0.274500012      -1.75032914    
  0.275000006      -1.78890264    
  0.275500000      -1.82710075    
  0.275999993      -1.86489034    
  0.276499987      -1.90223765    
  0.277000010      -1.93910933    
  0.277500004      -1.97547102    
  0.277999997      -2.01128888    
  0.278499991      -2.04652834    
  0.279000014      -2.08115554    
  0.279500008      -2.11513519    
  0.280000001      -2.14843297    
  0.280499995      -2.18101430    
  0.280999988      -2.21284461    
  0.281500012      -2.24388957    
  0.282000005      -2.27411461    
  0.282499999      -2.30348587    
  0.282999992      -2.33196902    
  0.283499986      -2.35953045    
  0.284000009      -2.38613701    
  0.284500003      -2.41175580    
  0.284999996      -2.43635392    
  0.285499990      -2.45989943    
  0.286000013      -2.48236012    
  0.286500007      -2.50370502    
  0.287000000      -2.52390337    
  0.287499994      -2.54292440    
  0.287999988      -2.56073904    
  0.288500011      -2.57731771    
  0.289000005      -2.59263206    
  0.289499998      -2.60665417    
  0.289999992      -2.61935687    
  0.290499985      -2.63071346    
  0.291000009      -2.64069796    
  0.291500002      -2.64928555    
  0.291999996      -2.65645170    
  0.292499989      -2.66217256    
  0.293000013      -2.66642570    
  0.293500006      -2.66918921    
  0.294000000      -2.67044258    
  0.294499993      -2.67016578    
  0.294999987      -2.66834044    
  0.295500010      -2.66494966    
  0.296000004      -2.65997696    
  0.296499997      -2.65340710    
  0.296999991      -2.64522648    
  0.297500014      -2.63542271    
  0.298000008      -2.62398458    
  0.298500001      -2.61090136    
  0.298999995      -2.59616423    
  0.299499989      -2.57976556    
  0.300000012      -2.56169891    
  0.300500005      -2.54195929    
  0.300999999      -2.52054286    
  0.301499993      -2.49744773    
  0.301999986      -2.47267365    
  0.302500010      -2.44622135    
  0.303000003      -2.41809273    
  0.303499997      -2.38829136    
  0.303999990      -2.35682201    
  0.304500014      -2.32369065    
  0.305000007      -2.28890562    
  0.305500001      -2.25247574    
  0.305999994      -2.21441221    
  0.306499988      -2.17472792    
  0.307000011      -2.13343668    
  0.307500005      -2.09055400    
  0.307999998      -2.04609704    
  0.308499992      -2.00008368    
  0.308999985      -1.95253408    
  0.309500009      -1.90346944    
  0.310000002      -1.85291219    
  0.310499996      -1.80088663    
  0.310999990      -1.74741900    
  0.311500013      -1.69253612    
  0.312000006      -1.63626635    
  0.312500000      -1.57863927    
  0.312999994      -1.51968610    
  0.313499987      -1.45943987    
  0.314000010      -1.39793479    
  0.314500004      -1.33520663    
  0.314999998      -1.27129257    
  0.315499991      -1.20623076    
  0.316000015      -1.14006102    
  0.316500008      -1.07282364    
  0.317000002      -1.00456107    
  0.317499995     -0.935316682    
  0.317999989     -0.865134358    
  0.318500012     -0.794059813    
  0.319000006     -0.722140074    
  0.319499999     -0.649422705    
  0.319999993     -0.575956225    
  0.320499986     -0.501789629    
  0.321000010     -0.426972985    
  0.321500003     -0.351557702    
  0.321999997     -0.275595129    
  0.322499990     -0.199137211    
  0.323000014     -0.122237146    
  0.323500007      -4.49477285E-02
  0.324000001       3.26776691E-02
  0.324499995      0.110584185    
  0.324999988      0.188716307    
  0.325500011      0.267019451    
  0.326000005      0.345438540    
  0.326499999      0.423916727    
  0.326999992      0.502397358    
  0.327499986      0.580823958    
  0.328000009      0.659138918    
  0.328500003      0.737283468    
  0.328999996      0.815199733    
  0.329499990      0.892829180    
  0.330000013      0.970112681    
  0.330500007       1.04699171    
  0.331000000       1.12340856    
  0.331499994       1.19930518    
  0.331999987       1.27462351    
  0.332500011       1.34930718    
  0.333000004       1.42330003    
  0.333499998       1.49654591    
  0.333999991       1.56898987    
  0.334500015       1.64057755    
  0.335000008       1.71125615    
  0.335500002       1.78097379    
  0.335999995       1.84967828    
  0.336499989       1.91731930    
  0.337000012       1.98384726    
  0.337500006       2.04921365    
  0.338000000       2.11337018    
  0.338499993       2.17627001    
  0.338999987       2.23786712    
  0.339500010       2.29811597    
  0.340000004       2.35697150    
  0.340499997       2.41439080    
  0.340999991       2.47033024    
  0.341500014       2.52474809    
  0.342000008       2.57760358    
  0.342500001       2.62885618    
  0.342999995       2.67846751    
  0.343499988       2.72640061    
  0.344000012       2.77262020    
  0.344500005       2.81709218    
  0.344999999       2.85978484    
  0.345499992       2.90066838    
  0.345999986       2.93971491    
  0.346500009       2.97689795    
  0.347000003       3.01219392    
  0.347499996       3.04558063    
  0.347999990       3.07703876    
  0.348500013       3.10654998    
  0.349000007       3.13409781    
  0.349500000       3.15966749    
  0.349999994       3.18324614    
  0.350499988       3.20482230    
  0.351000011       3.22438550    
  0.351500005       3.24192691    
  0.351999998       3.25744009    
  0.352499992       3.27091908    
  0.352999985       3.28235984    
  0.353500009       3.29175901    
  0.354000002       3.29911590    
  0.354499996       3.30443096    
  0.354999989       3.30770636    
  0.355500013       3.30894613    
  0.356000006       3.30815578    
  0.356500000       3.30534363    
  0.356999993       3.30051923    
  0.357499987       3.29369450    
  0.358000010       3.28488326    
  0.358500004       3.27410150    
  0.358999997       3.26136732    
  0.359499991       3.24670076    
  0.360000014       3.23012304    
  0.360500008       3.21165824    
  0.361000001       3.19133091    
  0.361499995       3.16916823    
  0.361999989       3.14519763    
  0.362500012       3.11944866    
  0.363000005       3.09195185    
  0.363499999       3.06273866    
  0.363999993       3.03184175    
  0.364499986       2.99929500    
  0.365000010       2.96513271    
  0.365500003       2.92939019    
  0.365999997       2.89210367    
  0.366499990       2.85331059    
  0.367000014       2.81304955    
  0.367500007       2.77135944    
  0.368000001       2.72828126    
  0.368499994       2.68385625    
  0.368999988       2.63812685    
  0.369500011       2.59113717    
  0.370000005       2.54293203    
  0.370499998       2.49355674    
  0.370999992       2.44305873    
  0.371499985       2.39148593    
  0.372000009       2.33888721    
  0.372500002       2.28531194    
  0.372999996       2.23080969    
  0.373499990       2.17543101    
  0.374000013       2.11922622    
  0.374500006       2.06224608    
  0.375000000       2.00454140    
  0.375499994       1.94616342    
  0.375999987       1.88716292    
  0.376500010       1.82759035    
  0.377000004       1.76749623    
  0.377499998       1.70693111    
  0.377999991       1.64594471    
  0.378500015       1.58458650    
  0.379000008       1.52290642    
  0.379500002       1.46095395    
  0.379999995       1.39877832    
  0.380499989       1.33642864    
  0.381000012       1.27395391    
  0.381500006       1.21140289    
  0.381999999       1.14882410    
  0.382499993       1.08626592    
  0.382999986       1.02377653    
  0.383500010      0.961403489    
  0.384000003      0.899194419    
  0.384499997      0.837195992    
  0.384999990      0.775454819    
  0.385500014      0.714015961    
  0.386000007      0.652923644    
  0.386500001      0.592221856    
  0.386999995      0.531953275    
  0.387499988      0.472159028    
  0.388000011      0.412879497    
  0.388500005      0.354154080    
  0.388999999      0.296020836    
  0.389499992      0.238516375    
  0.389999986      0.181676343    
  0.390500009      0.125535563    
  0.391000003       7.01273978E-02
  0.391499996       1.54843060E-02
  0.391999990      -3.83621268E-02
  0.392500013      -9.13815424E-02
  0.393000007     -0.143544510    
  0.393500000     -0.194822535    
  0.393999994     -0.245187998    
  0.394499987     -0.294614315    
  0.395000011     -0.343075752    
  0.395500004     -0.390547812    
  0.395999998     -0.437007129    
  0.396499991     -0.482430905    
  0.397000015     -0.526797414    
  0.397500008     -0.570086896    
  0.398000002     -0.612280607    
  0.398499995     -0.653360724    
  0.398999989     -0.693310797    
  0.399500012     -0.732116222    
  0.400000006     -0.769763529    
  0.400500000     -0.806241035    
  0.400999993     -0.841538310    
  0.401499987     -0.875646234    
  0.402000010     -0.908557177    
  0.402500004     -0.940264761    
  0.402999997     -0.970764399    
  0.403499991      -1.00005209    
  0.404000014      -1.02812517    
  0.404500008      -1.05498254    
  0.405000001      -1.08062363    
  0.405499995      -1.10504901    
  0.405999988      -1.12826037    
  0.406500012      -1.15026009    
  0.407000005      -1.17105138    
  0.407499999      -1.19063795    
  0.407999992      -1.20902431    
  0.408499986      -1.22621667    
  0.409000009      -1.24222124    
  0.409500003      -1.25704515    
  0.409999996      -1.27069616    
  0.410499990      -1.28318381    
  0.411000013      -1.29451776    
  0.411500007      -1.30470872    
  0.412000000      -1.31376874    
  0.412499994      -1.32171047    
  0.412999988      -1.32854712    
  0.413500011      -1.33429360    
  0.414000005      -1.33896554    
  0.414499998      -1.34257972    
  0.414999992      -1.34515321    
  0.415499985      -1.34670389    
  0.416000009      -1.34725070    
  0.416500002      -1.34681308    
  0.416999996      -1.34541106    
  0.417499989      -1.34306526    
  0.418000013      -1.33979642    
  0.418500006      -1.33562541    
  0.419000000      -1.33057380    
  0.419499993      -1.32466352    
  0.419999987      -1.31791663    
  0.420500010      -1.31035519    
  0.421000004      -1.30200136    
  0.421499997      -1.29287767    
  0.421999991      -1.28300691    
  0.422500014      -1.27241158    
  0.423000008      -1.26111472    
  0.423500001      -1.24913955    
  0.423999995      -1.23650932    
  0.424499989      -1.22324789    
  0.425000012      -1.20937872    
  0.425500005      -1.19492614    
  0.425999999      -1.17991459    
  0.426499993      -1.16436827    
  0.426999986      -1.14831197    
  0.427500010      -1.13177037    
  0.428000003      -1.11476851    