   0.00000000       0.00000000    
   5.00000024E-04   0.00000000    
   1.00000005E-03   0.00000000    
   1.50000001E-03   0.00000000    
   2.00000009E-03   0.00000000    
   2.49999994E-03   0.00000000    
   3.00000003E-03   0.00000000    
   3.50000011E-03   0.00000000    
   4.00000019E-03   0.00000000    
   4.49999981E-03   0.00000000    
   4.99999989E-03   8.30750614E-35
   5.49999997E-03   6.51490882E-34
   6.00000005E-03   3.27293921E-33
   6.50000013E-03   1.08994209E-32
   7.00000022E-03   1.75250030E-32
   7.49999983E-03  -5.83974074E-32
   8.00000038E-03  -6.53330309E-31
   8.50000046E-03  -3.50504730E-30
   8.99999961E-03  -1.44176891E-29
   9.49999969E-03  -5.04909077E-29
   9.99999978E-03  -1.57380327E-28
   1.04999999E-02  -4.47473115E-28
   1.09999999E-02  -1.17886875E-27
   1.15000000E-02  -2.90935291E-27
   1.20000001E-02  -6.78076176E-27
   1.25000002E-02  -1.50184649E-26
   1.30000003E-02  -3.17681189E-26
   1.35000004E-02  -6.44351510E-26
   1.40000004E-02  -1.25734198E-25
   1.44999996E-02  -2.36686424E-25
   1.49999997E-02  -4.30796990E-25
   1.54999997E-02  -7.59581741E-25
   1.60000008E-02  -1.29944156E-24
   1.64999999E-02  -2.15957339E-24
   1.70000009E-02  -3.49006856E-24
   1.75000001E-02  -5.48860427E-24
   1.79999992E-02  -8.40301815E-24
   1.85000002E-02  -1.25256825E-23
   1.89999994E-02  -1.81739353E-23
   1.95000004E-02  -2.56490361E-23
   1.99999996E-02  -3.51638787E-23
   2.05000006E-02  -4.67290940E-23
   2.09999997E-02  -5.99844657E-23
   2.15000007E-02  -7.39664699E-23
   2.19999999E-02  -8.68004228E-23
   2.25000009E-02  -9.53153495E-23
   2.30000000E-02  -9.45872309E-23
   2.34999992E-02  -7.74263886E-23
   2.40000002E-02  -3.38462128E-23
   2.44999994E-02   4.94277682E-23
   2.50000004E-02   1.89326642E-22
   2.54999995E-02   4.06564118E-22
   2.60000005E-02   7.25382669E-22
   2.64999997E-02   1.17273794E-21
   2.70000007E-02   1.77672963E-21
   2.74999999E-02   2.56407330E-21
   2.80000009E-02   3.55641700E-21
   2.85000000E-02   4.76534308E-21
   2.89999992E-02   6.18593975E-21
   2.95000002E-02   7.78901699E-21
   2.99999993E-02   9.51201159E-21
   3.05000003E-02   1.12490917E-20
   3.09999995E-02   1.28408966E-20
   3.15000005E-02   1.40649187E-20
   3.20000015E-02   1.46275291E-20
   3.24999988E-02   1.41592981E-20
   3.29999998E-02   1.22152071E-20
   3.35000008E-02   8.28162809E-21
   3.40000018E-02   1.79242304E-21
   3.44999991E-02  -7.84416183E-21
   3.50000001E-02  -2.12059415E-20
   3.55000012E-02  -3.88030522E-20
   3.59999985E-02  -6.10095139E-20
   3.64999995E-02  -8.79807976E-20
   3.70000005E-02  -1.19558773E-19
   3.75000015E-02  -1.55167554E-19
   3.79999988E-02  -1.93706041E-19
   3.84999998E-02  -2.33442156E-19
   3.90000008E-02  -2.71922443E-19
   3.95000018E-02  -3.05902402E-19
   3.99999991E-02  -3.31316570E-19
   4.05000001E-02  -3.43294947E-19
   4.10000011E-02  -3.36248092E-19
   4.14999984E-02  -3.04027158E-19
   4.19999994E-02  -2.40175949E-19
   4.25000004E-02  -1.38279925E-19
   4.30000015E-02   7.58162649E-21
   4.34999987E-02   2.02285003E-19
   4.39999998E-02   4.49020727E-19
   4.45000008E-02   7.48582428E-19
   4.50000018E-02   1.09861331E-18
   4.54999991E-02   1.49285400E-18
   4.60000001E-02   1.92043173E-18
   4.65000011E-02   2.36526568E-18
   4.69999984E-02   2.80563637E-18
   4.74999994E-02   3.21400800E-18
   4.80000004E-02   3.55716367E-18
   4.85000014E-02   3.79673668E-18
   4.89999987E-02   3.89017665E-18
   4.94999997E-02   3.79221986E-18
   5.00000007E-02   3.45689511E-18
   5.05000018E-02   2.84002310E-18
   5.09999990E-02   1.90224616E-18
   5.15000001E-02   6.12395050E-19
   5.20000011E-02  -1.04871726E-18
   5.24999984E-02  -3.08446965E-18
   5.29999994E-02  -5.47855616E-18
   5.35000004E-02  -8.19143478E-18
   5.40000014E-02  -1.11572884E-17
   5.44999987E-02  -1.42818258E-17
   5.49999997E-02  -1.74411727E-17
   5.55000007E-02  -2.04821533E-17
   5.60000017E-02  -2.32242984E-17
   5.64999990E-02  -2.54636451E-17
   5.70000000E-02  -2.69784907E-17
   5.75000010E-02  -2.75374746E-17
   5.79999983E-02  -2.69095055E-17
   5.84999993E-02  -2.48755329E-17
   5.90000004E-02  -2.12418525E-17
   5.95000014E-02  -1.58550191E-17
   5.99999987E-02  -8.61651958E-18
   6.04999997E-02   5.01834916E-19
   6.10000007E-02   1.14439296E-17
   6.15000017E-02   2.40571403E-17
   6.19999990E-02   3.80825848E-17
   6.25000000E-02   5.31493024E-17
   6.30000010E-02   6.87727689E-17
   6.35000020E-02   8.43587839E-17
   6.40000030E-02   9.92133000E-17
   6.44999966E-02   1.12558450E-16
   6.49999976E-02   1.23555267E-16
   6.54999986E-02   1.31332392E-16
   6.59999996E-02   1.35020705E-16
   6.65000007E-02   1.33793155E-16
   6.70000017E-02   1.26907532E-16
   6.75000027E-02   1.13752541E-16
   6.80000037E-02   9.38924574E-17
   6.84999973E-02   6.71115785E-17
   6.89999983E-02   3.34533545E-17
   6.94999993E-02  -6.74586055E-18
   7.00000003E-02  -5.28332599E-17
   7.05000013E-02  -1.03826698E-16
   7.10000023E-02  -1.58413425E-16
   7.15000033E-02  -2.14964654E-16
   7.19999969E-02  -2.71564851E-16
   7.24999979E-02  -3.26056757E-16
   7.29999989E-02  -3.76101210E-16
   7.34999999E-02  -4.19252086E-16
   7.40000010E-02  -4.53042454E-16
   7.45000020E-02  -4.75080451E-16
   7.50000030E-02  -4.83152199E-16
   7.54999965E-02  -4.75326726E-16
   7.59999976E-02  -4.50058463E-16
   7.64999986E-02  -4.06282768E-16
   7.69999996E-02  -3.43503068E-16
   7.75000006E-02  -2.61858145E-16
   7.80000016E-02  -1.62173947E-16
   7.85000026E-02  -4.59901535E-17
   7.90000036E-02   8.44421505E-17
   7.94999972E-02   2.26184293E-16
   7.99999982E-02   3.75662712E-16
   8.04999992E-02   5.28756612E-16
   8.10000002E-02   6.80898764E-16
   8.15000013E-02   8.27208300E-16
   8.20000023E-02   9.62635157E-16
   8.25000033E-02   1.08211889E-15
   8.29999968E-02   1.18075366E-15
   8.34999979E-02   1.25395213E-15
   8.39999989E-02   1.29760397E-15
   8.44999999E-02   1.30821856E-15
   8.50000009E-02   1.28305322E-15
   8.55000019E-02   1.22021417E-15
   8.60000029E-02   1.11872861E-15
   8.64999965E-02   9.78597175E-16
   8.69999975E-02   8.00803636E-16
   8.74999985E-02   5.87308399E-16
   8.79999995E-02   3.41000933E-16
   8.85000005E-02   6.56501952E-17
   8.90000015E-02  -2.34177584E-16
   8.95000026E-02  -5.53204894E-16
   9.00000036E-02  -8.85534830E-16
   9.04999971E-02  -1.22473817E-15
   9.09999982E-02  -1.56393516E-15
   9.14999992E-02  -1.89586620E-15
   9.20000002E-02  -2.21294769E-15
   9.25000012E-02  -2.50731430E-15
   9.30000022E-02  -2.77084975E-15
   9.35000032E-02  -2.99521163E-15
   9.39999968E-02  -3.17185865E-15
   9.44999978E-02  -3.29208799E-15
   9.49999988E-02  -3.34709961E-15
   9.54999998E-02  -3.32809621E-15
   9.60000008E-02  -3.22643320E-15
   9.65000018E-02  -3.03382426E-15
   9.70000029E-02  -2.74264694E-15
   9.74999964E-02  -2.34629270E-15
   9.79999974E-02  -1.83962893E-15
   9.84999985E-02  -1.21952754E-15
   9.89999995E-02  -4.85474393E-16
   9.95000005E-02   3.59787753E-16
  0.100000001       1.30956249E-15
  0.100500003       2.35253597E-15
  0.101000004       3.47213586E-15
  0.101499997       4.64600790E-15
  0.101999998       5.84562890E-15
  0.102499999       7.03611338E-15
  0.103000000       8.17630824E-15
  0.103500001       9.21915827E-15
  0.104000002       1.01124638E-14
  0.104500003       1.08000114E-14
  0.104999997       1.12231196E-14
  0.105499998       1.13226189E-14
  0.105999999       1.10412227E-14
  0.106500000       1.03262668E-14
  0.107000001       9.13276599E-15
  0.107500002       7.42667561E-15
  0.108000003       5.18824536E-15
  0.108499996       2.41538581E-15
  0.108999997      -8.73231941E-16
  0.109499998      -4.63532470E-15
  0.109999999      -8.80285428E-15
  0.110500000      -1.32804212E-14
  0.111000001      -1.79447979E-14
  0.111500002      -2.26453005E-14
  0.112000003      -2.72056310E-14
  0.112499997      -3.14268875E-14
  0.112999998      -3.50920668E-14
  0.113499999      -3.79719686E-14
  0.114000000      -3.98324867E-14
  0.114500001      -4.04431805E-14
  0.115000002      -3.95870504E-14
  0.115500003      -3.70709492E-14
  0.115999997      -3.27367494E-14
  0.116499998      -2.64726510E-14
  0.116999999      -1.82241426E-14
  0.117500000      -8.00433345E-15
  0.118000001       4.09713818E-15
  0.118500002       1.79066611E-14
  0.119000003       3.31617668E-14
  0.119499996       4.95088250E-14
  0.119999997       6.65039719E-14
  0.120499998       8.36176086E-14
  0.120999999       1.00242717E-13
  0.121500000       1.15706991E-13
  0.122000001       1.29289036E-13
  0.122500002       1.40238326E-13
  0.123000003       1.47798684E-13
  0.123499997       1.51234724E-13
  0.123999998       1.49860769E-13
  0.124499999       1.43071021E-13
  0.125000000       1.30371259E-13
  0.125499994       1.11408671E-13
  0.126000002       8.60015252E-14
  0.126499996       5.41653311E-14
  0.127000004       1.61354931E-14
  0.127499998      -2.76160744E-14
  0.128000006      -7.63699068E-14
  0.128500000      -1.29155665E-13
  0.128999993      -1.84756629E-13
  0.129500002      -2.41723688E-13
  0.129999995      -2.98397700E-13
  0.130500004      -3.52942149E-13
  0.130999997      -4.03384005E-13
  0.131500006      -4.47663526E-13
  0.131999999      -4.83691700E-13
  0.132499993      -5.09414180E-13
  0.133000001      -5.22879158E-13
  0.133499995      -5.22310222E-13
  0.134000003      -5.06177240E-13
  0.134499997      -4.73269210E-13
  0.135000005      -4.22759484E-13
  0.135499999      -3.54268183E-13
  0.136000007      -2.67913757E-13
  0.136500001      -1.64353164E-13
  0.136999995      -4.48117902E-14
  0.137500003       8.89078985E-14
  0.137999997       2.34426221E-13
  0.138500005       3.88812246E-13
  0.138999999       5.48621641E-13
  0.139500007       7.09956670E-13
  0.140000001       8.68543139E-13
  0.140499994       1.01982290E-12
  0.141000003       1.15906286E-12
  0.141499996       1.28147579E-12
  0.142000005       1.38235192E-12
  0.142499998       1.45719548E-12
  0.143000007       1.50186471E-12
  0.143500000       1.51271172E-12
  0.143999994       1.48671526E-12
  0.144500002       1.42160491E-12
  0.144999996       1.31597153E-12
  0.145500004       1.16935769E-12
  0.145999998       9.82332163E-13
  0.146500006       7.56535459E-13
  0.147000000       4.94695864E-13
  0.147499993       2.00628292E-13
  0.148000002      -1.20813285E-13
  0.148499995      -4.63797078E-13
  0.149000004      -8.21619194E-13
  0.149499997      -1.18682310E-12
  0.150000006      -1.55135594E-12
  0.150500000      -1.90674039E-12
  0.150999993      -2.24427096E-12
  0.151500002      -2.55521732E-12
  0.151999995      -2.83104161E-12
  0.152500004      -3.06361577E-12
  0.152999997      -3.24543886E-12
  0.153500006      -3.36984542E-12
  0.153999999      -3.43119738E-12
  0.154499993      -3.42506232E-12
  0.155000001      -3.34835870E-12
  0.155499995      -3.19947909E-12
  0.156000003      -2.97837926E-12
  0.156499997      -2.68662848E-12
  0.157000005      -2.32742168E-12
  0.157499999      -1.90556121E-12
  0.158000007      -1.42738490E-12
  0.158500001      -9.00670922E-13
  0.158999994      -3.34493988E-13
  0.159500003       2.60943312E-13
  0.159999996       8.74513461E-13
  0.160500005       1.49439304E-12
  0.160999998       2.10830854E-12
  0.161500007       2.70380701E-12
  0.162000000       3.26851827E-12
  0.162499994       3.79043975E-12
  0.163000003       4.25820533E-12
  0.163499996       4.66136201E-12
  0.164000005       4.99060949E-12
  0.164499998       5.23803527E-12
  0.165000007       5.39733362E-12
  0.165500000       5.46396912E-12
  0.165999994       5.43533838E-12
  0.166500002       5.31087674E-12
  0.166999996       5.09212681E-12
  0.167500004       4.78278615E-12
  0.167999998       4.38868256E-12
  0.168500006       3.91773506E-12
  0.169000000       3.37985716E-12
  0.169499993       2.78681874E-12
  0.170000002       2.15207192E-12
  0.170499995       1.49053025E-12
  0.171000004       8.18306848E-13
  0.171499997       1.52425490E-13
  0.172000006      -4.89525087E-13
  0.172499999      -1.08974114E-12
  0.172999993      -1.63060581E-12
  0.173500001      -2.09511119E-12
  0.173999995      -2.46729503E-12
  0.174500003      -2.73269818E-12
  0.174999997      -2.87883606E-12
  0.175500005      -2.89565442E-12
  0.175999999      -2.77600339E-12
  0.176499993      -2.51608283E-12
  0.177000001      -2.11585068E-12
  0.177499995      -1.57942843E-12
  0.178000003      -9.15420409E-13
  0.178499997      -1.37187191E-13
  0.179000005       7.36957099E-13
  0.179499999       1.68363901E-12
  0.180000007       2.67442427E-12
  0.180500001       3.67592935E-12
  0.180999994       4.65007373E-12
  0.181500003       5.55448656E-12
  0.181999996       6.34300815E-12
  0.182500005       6.96642440E-12
  0.182999998       7.37328427E-12
  0.183500007       7.51099443E-12
  0.184000000       7.32689777E-12
  0.184499994       6.76967510E-12
  0.185000002       5.79075373E-12
  0.185499996       4.34593377E-12
  0.186000004       2.39698083E-12
  0.186499998      -8.65674110E-14
  0.187000006      -3.12576614E-12
  0.187500000      -6.73042958E-12
  0.187999994      -1.08975381E-11
  0.188500002      -1.56096611E-11
  0.188999996      -2.08335727E-11
  0.189500004      -2.65189919E-11
  0.189999998      -3.25978342E-11
  0.190500006      -3.89834345E-11
  0.191000000      -4.55704537E-11
  0.191499993      -5.22349837E-11
  0.192000002      -5.88352422E-11
  0.192499995      -6.52126061E-11
  0.193000004      -7.11933151E-11
  0.193499997      -7.65905117E-11
  0.194000006      -8.12069925E-11
  0.194499999      -8.48383377E-11
  0.194999993      -8.72764916E-11
  0.195500001      -8.83138077E-11
  0.195999995      -8.77476009E-11
  0.196500003      -8.53849561E-11
  0.196999997      -8.10475437E-11
  0.197500005      -7.45769904E-11
  0.197999999      -6.58399446E-11
  0.198500007      -5.47331347E-11
  0.199000001      -4.11885075E-11
  0.199499995      -2.51779292E-11
  0.200000003      -6.71671399E-12
  0.200499997       1.41317253E-11
  0.201000005       3.72535752E-11
  0.201499999       6.24825816E-11
  0.202000007       8.95981414E-11
  0.202500001       1.18325516E-10
  0.202999994       1.48336413E-10
  0.203500003       1.79250462E-10
  0.203999996       2.10639145E-10
  0.204500005       2.42028009E-10
  0.204999998       2.72903616E-10
  0.205500007       3.02719239E-10
  0.206000000       3.30901417E-10
  0.206499994       3.56858654E-10
  0.207000002       3.79990317E-10
  0.207499996       3.99696054E-10
  0.208000004       4.15385282E-10
  0.208499998       4.26488511E-10
  0.209000006       4.32467145E-10
  0.209500000       4.32823555E-10
  0.209999993       4.27112179E-10
  0.210500002       4.14948270E-10
  0.210999995       3.96017136E-10
  0.211500004       3.70082409E-10
  0.211999997       3.36993877E-10
  0.212500006       2.96691227E-10
  0.213000000       2.49211540E-10
  0.213499993       1.94690361E-10
  0.214000002       1.33365305E-10
  0.214499995       6.55746013E-11
  0.215000004      -8.24353259E-12
  0.215499997      -8.75527081E-11
  0.216000006      -1.71724718E-10
  0.216499999      -2.60042543E-10
  0.216999993      -3.51710494E-10
  0.217500001      -4.45859738E-10
  0.217999995      -5.41557965E-10
  0.218500003      -6.37821407E-10
  0.218999997      -7.33621996E-10
  0.219500005      -8.27901359E-10
  0.219999999      -9.19580800E-10
  0.220500007      -1.00757214E-09
  0.221000001      -1.09078913E-09
  0.221499994      -1.16815935E-09
  0.222000003      -1.23863320E-09
  0.222499996      -1.30119293E-09
  0.223000005      -1.35486233E-09
  0.223499998      -1.39871525E-09
  0.224000007      -1.43187906E-09
  0.224500000      -1.45354540E-09
  0.224999994      -1.46296986E-09
  0.225500003      -1.45947998E-09
  0.225999996      -1.44247547E-09
  0.226500005      -1.41143208E-09
  0.226999998      -1.36590206E-09
  0.227500007      -1.30551570E-09
  0.228000000      -1.22998112E-09
  0.228499994      -1.13908649E-09
  0.229000002      -1.03269870E-09
  0.229499996      -9.10764297E-10
  0.230000004      -7.73312081E-10
  0.230499998      -6.20451468E-10
  0.231000006      -4.52380466E-10
  0.231500000      -2.69381101E-10
  0.231999993      -7.18292717E-11
  0.232500002       1.39799936E-10
  0.232999995       3.64929670E-10
  0.233500004       6.02873640E-10
  0.233999997       8.52825477E-10
  0.234500006       1.11385179E-09
  0.234999999       1.38488421E-09
  0.235499993       1.66470493E-09
  0.236000001       1.95194239E-09
  0.236499995       2.24505503E-09
  0.237000003       2.54232835E-09
  0.237499997       2.84186386E-09
  0.238000005       3.14156656E-09
  0.238499999       3.43914497E-09
  0.238999993       3.73210618E-09
  0.239500001       4.01775679E-09
  0.239999995       4.29319691E-09
  0.240500003       4.55532945E-09
  0.240999997       4.80086504E-09
  0.241500005       5.02634823E-09
  0.241999999       5.22814991E-09
  0.242500007       5.40250555E-09
  0.243000001       5.54554225E-09
  0.243499994       5.65329028E-09
  0.244000003       5.72174530E-09
  0.244499996       5.74687986E-09
  0.245000005       5.72471537E-09
  0.245499998       5.65134251E-09
  0.246000007       5.52300516E-09
  0.246500000       5.33612354E-09
  0.246999994       5.08738296E-09
  0.247500002       4.77378137E-09
  0.247999996       4.39269598E-09
  0.248500004       3.94195121E-09
  0.248999998       3.41988016E-09
  0.249500006       2.82539592E-09
  0.250000000       2.15805218E-09
  0.250499994       1.41810164E-09
  0.250999987       6.06557193E-10
  0.251500010      -2.74746559E-10
  0.252000004      -1.22312149E-09
  0.252499998      -2.23497998E-09
  0.252999991      -3.30578676E-09
  0.253500015      -4.43005987E-09
  0.254000008      -5.60134694E-09
  0.254500002      -6.81219570E-09
  0.254999995      -8.05421418E-09
  0.255499989      -9.31803790E-09
  0.256000012      -1.05934008E-08
  0.256500006      -1.18691501E-08
  0.256999999      -1.31333433E-08
  0.257499993      -1.43732697E-08
  0.257999986      -1.55756119E-08
  0.258500010      -1.67264567E-08
  0.259000003      -1.78114803E-08
  0.259499997      -1.88160296E-08
  0.259999990      -1.97252827E-08
  0.260500014      -2.05244035E-08
  0.261000007      -2.11986535E-08
  0.261500001      -2.17335874E-08
  0.261999995      -2.21152519E-08
  0.262499988      -2.23302798E-08
  0.263000011      -2.23661552E-08
  0.263500005      -2.22113208E-08
  0.263999999      -2.18553726E-08
  0.264499992      -2.12892655E-08
  0.264999986      -2.05054054E-08
  0.265500009      -1.94978735E-08
  0.266000003      -1.82625080E-08
  0.266499996      -1.67971024E-08
  0.266999990      -1.51014490E-08
  0.267500013      -1.31774582E-08
  0.268000007      -1.10292584E-08
  0.268500000      -8.66323546E-09
  0.268999994      -6.08805806E-09
  0.269499987      -3.31467387E-09
  0.270000011      -3.56339735E-10
  0.270500004       2.77145240E-09
  0.270999998       6.05106010E-09
  0.271499991       9.46271950E-09
  0.272000015       1.29847377E-08
  0.272500008       1.65935319E-08
  0.273000002       2.02639150E-08
  0.273499995       2.39691840E-08
  0.273999989       2.76813150E-08
  0.274500012       3.13712931E-08
  0.275000006       3.50091902E-08
  0.275500000       3.85644903E-08
  0.275999993       4.20063841E-08
  0.276499987       4.53039100E-08
  0.277000010       4.84263794E-08
  0.277500004       5.13433882E-08
  0.277999997       5.40254135E-08
  0.278499991       5.64437563E-08
  0.279000014       5.85709330E-08
  0.279500008       6.03808985E-08
  0.280000001       6.18492777E-08
  0.280499995       6.29534966E-08
  0.280999988       6.36730633E-08
  0.281500012       6.39896882E-08
  0.282000005       6.38873914E-08
  0.282499999       6.33526440E-08
  0.282999992       6.23745748E-08
  0.283499986       6.09449486E-08
  0.284000009       5.90582268E-08
  0.284500003       5.67116807E-08
  0.284999996       5.39052927E-08
  0.285499990       5.06419227E-08
  0.286000013       4.69271733E-08
  0.286500007       4.27693507E-08
  0.287000000       3.81795573E-08
  0.287499994       3.31714887E-08
  0.287999988       2.77614376E-08
  0.288500011       2.19682192E-08
  0.289000005       1.58131144E-08
  0.289499998       9.31973343E-09
  0.289999992       2.51398413E-09
  0.290499985      -4.57605376E-09
  0.291000009      -1.19202239E-08
  0.291500002      -1.94863361E-08
  0.291999996      -2.72402723E-08
  0.292499989      -3.51460763E-08
  0.293000013      -4.31661320E-08
  0.293500006      -5.12610896E-08
  0.294000000      -5.93900786E-08
  0.294499993      -6.75108893E-08
  0.294999987      -7.55798055E-08
  0.295500010      -8.35519671E-08
  0.296000004      -9.13815228E-08
  0.296499997      -9.90216122E-08
  0.296999991      -1.06424395E-07
  0.297500014      -1.13541653E-07
  0.298000008      -1.20324557E-07
  0.298500001      -1.26724146E-07
  0.298999995      -1.32691412E-07
  0.299499989      -1.38177370E-07
  0.300000012      -1.43133860E-07
  0.300500005      -1.47513319E-07
  0.300999999      -1.51269333E-07
  0.301499993      -1.54356826E-07
  0.301999986      -1.56732554E-07
  0.302500010      -1.58355718E-07
  0.303000003      -1.59187806E-07
  0.303499997      -1.59193064E-07
  0.303999990      -1.58339276E-07
  0.304500014      -1.56598318E-07
  0.305000007      -1.53945592E-07
  0.305500001      -1.50361529E-07
  0.305999994      -1.45831024E-07
  0.306499988      -1.40344525E-07
  0.307000011      -1.33898453E-07
  0.307500005      -1.26494456E-07
  0.307999998      -1.18141138E-07
  0.308499992      -1.08852667E-07
  0.308999985      -9.86505668E-08
  0.309500009      -8.75624195E-08
  0.310000002      -7.56235892E-08
  0.310499996      -6.28746193E-08
  0.310999990      -4.93646262E-08
  0.311500013      -3.51476181E-08
  0.312000006      -2.02851655E-08
  0.312500000      -4.84482410E-09
  0.312999994       1.11006484E-08
  0.313499987       2.74726482E-08
  0.314000010       4.41873702E-08
  0.314500004       6.11574222E-08
  0.314999998       7.82909666E-08
  0.315499991       9.54927657E-08
  0.316000015       1.12665859E-07
  0.316500008       1.29709960E-07
  0.317000002       1.46525636E-07
  0.317499995       1.63011151E-07
  0.317999989       1.79066888E-07
  0.318500012       1.94592801E-07
  0.319000006       2.09491859E-07
  0.319499999       2.23668593E-07
  0.319999993       2.37031998E-07
  0.320499986       2.49493894E-07
  0.321000010       2.60972229E-07
  0.321500003       2.71389126E-07
  0.321999997       2.80671031E-07
  0.322499990       2.88752602E-07
  0.323000014       2.95573244E-07
  0.323500007       3.01080831E-07
  0.324000001       3.05228411E-07
  0.324499995       3.07976336E-07
  0.324999988       3.09292147E-07
  0.325500011       3.09149783E-07
  0.326000005       3.07530030E-07
  0.326499999       3.04419046E-07
  0.326999992       2.99814957E-07
  0.327499986       2.93709491E-07
  0.328000009       2.86110406E-07
  0.328500003       2.77024924E-07
  0.328999996       2.66465577E-07
  0.329499990       2.54449048E-07
  0.330000013       2.40992108E-07
  0.330500007       2.26115219E-07
  0.331000000       2.09841517E-07
  0.331499994       1.92190171E-07
  0.331999987       1.73185043E-07
  0.332500011       1.52844407E-07
  0.333000004       1.31189921E-07
  0.333499998       1.08238169E-07
  0.333999991       8.40070342E-08
  0.334500015       5.85013353E-08
  0.335000008       3.17350590E-08
  0.335500002       3.71155351E-09
  0.335999995      -2.55703192E-08
  0.336499989      -5.61084690E-08
  0.337000012      -8.79200854E-08
  0.337500006      -1.21005016E-07
  0.338000000      -1.55378856E-07
  0.338499993      -1.91070569E-07
  0.338999987      -2.28088382E-07
  0.339500010      -2.66460461E-07
  0.340000004      -3.06212542E-07
  0.340499997      -3.47372833E-07
  0.340999991      -3.89968534E-07
  0.341500014      -4.34026816E-07
  0.342000008      -4.79573771E-07
  0.342500001      -5.26627900E-07
  0.342999995      -5.75224362E-07
  0.343499988      -6.25371172E-07
  0.344000012      -6.77093283E-07
  0.344500005      -7.30396096E-07
  0.344999999      -7.85276143E-07
  0.345499992      -8.41750193E-07
  0.345999986      -8.99807333E-07
  0.346500009      -9.59427553E-07
  0.347000003      -1.02058823E-06
  0.347499996      -1.08326788E-06
  0.347999990      -1.14742704E-06
  0.348500013      -1.21301730E-06
  0.349000007      -1.28000067E-06
  0.349500000      -1.34829793E-06
  0.349999994      -1.41786074E-06
  0.350499988      -1.48860909E-06
  0.351000011      -1.56047383E-06
  0.351500005      -1.63337609E-06
  0.351999998      -1.70721739E-06
  0.352499992      -1.78191988E-06
  0.352999985      -1.85739339E-06
  0.353500009      -1.93354958E-06
  0.354000002      -2.01028843E-06
  0.354499996      -2.08754955E-06
  0.354999989      -2.16521062E-06
  0.355500013      -2.24324026E-06
  0.356000006      -2.32153320E-06
  0.356500000      -2.40003646E-06
  0.356999993      -2.47870616E-06
  0.357499987      -2.55747614E-06
  0.358000010      -2.63631796E-06
  0.358500004      -2.71522435E-06
  0.358999997      -2.79416849E-06
  0.359499991      -2.87316311E-06
  0.360000014      -2.95223526E-06
  0.360500008      -3.03142360E-06
  0.361000001      -3.11076406E-06
  0.361499995      -3.19034120E-06
  0.361999989      -3.27022076E-06
  0.362500012      -3.35052027E-06
  0.363000005      -3.43135662E-06
  0.363499999      -3.51284575E-06
  0.363999993      -3.59517048E-06
  0.364499986      -3.67846997E-06
  0.365000010      -3.76294702E-06
  0.365500003      -3.84877922E-06
  0.365999997      -3.93616938E-06
  0.366499990      -4.02544401E-06
  0.367000014      -4.11674409E-06
  0.367500007      -4.21034565E-06
  0.368000001      -4.30650880E-06
  0.368499994      -4.40550502E-06
  0.368999988      -4.50767675E-06
  0.369500011      -4.61327954E-06
  0.370000005      -4.72263582E-06
  0.370499998      -4.83597205E-06
  0.370999992      -4.95372569E-06
  0.371499985      -5.07615778E-06
  0.372000009      -5.20366621E-06
  0.372500002      -5.33653883E-06
  0.372999996      -5.47518312E-06
  0.373499990      -5.61988008E-06
  0.374000013      -5.77097353E-06
  0.374500006      -5.92877086E-06
  0.375000000      -6.09370591E-06
  0.375499994      -6.26613291E-06
  0.375999987      -6.44627789E-06
  0.376500010      -6.63462333E-06
  0.377000004      -6.83126063E-06
  0.377499998      -7.03686283E-06
  0.377999991      -7.25139080E-06
  0.378500015      -7.47534523E-06
  0.379000008      -7.70872339E-06
  0.379500002      -7.95205688E-06
  0.379999995      -8.20549212E-06
  0.380499989      -8.46883631E-06
  0.381000012      -8.74270881E-06
  0.381500006      -9.02690772E-06
  0.381999999      -9.32167313E-06
  0.382499993      -9.62660761E-06
  0.382999986      -9.94214042E-06
  0.383500010      -1.02675904E-05
  0.384000003      -1.06031484E-05
  0.384499997      -1.09484736E-05
  0.384999990      -1.13027963E-05
  0.385500014      -1.16661231E-05
  0.386000007      -1.20372943E-05
  0.386500001      -1.24160406E-05
  0.386999995      -1.28009815E-05
  0.387499988      -1.31922170E-05
  0.388000011      -1.35879072E-05
  0.388500005      -1.39863669E-05
  0.388999999      -1.43867255E-05
  0.389499992      -1.47881301E-05
  0.389999986      -1.51868990E-05
  0.390500009      -1.55828457E-05
  0.391000003      -1.59724241E-05
  0.391499996      -1.63542045E-05
  0.391999990      -1.67254639E-05
  0.392500013      -1.70835683E-05
  0.393000007      -1.74246943E-05
  0.393500000      -1.77452639E-05
  0.393999994      -1.80431634E-05
  0.394499987      -1.83125576E-05
  0.395000011      -1.85497647E-05
  0.395500004      -1.87496807E-05
  0.395999998      -1.89101029E-05
  0.396499991      -1.90224619E-05
  0.397000015      -1.90832870E-05
  0.397500008      -1.90838437E-05
  0.398000002      -1.90198643E-05
  0.398499995      -1.88832710E-05
  0.398999989      -1.86677462E-05
  0.399500012      -1.83648935E-05
  0.400000006      -1.79622602E-05
  0.400500000      -1.74546913E-05
  0.400999993      -1.68319129E-05
  0.401499987      -1.60871659E-05
  0.402000010      -1.51994564E-05
  0.402500004      -1.41664414E-05
  0.402999997      -1.29703667E-05
  0.403499991      -1.15957837E-05
  0.404000014      -1.00367024E-05
  0.404500008      -8.27095027E-06
  0.405000001      -6.28543876E-06
  0.405499995      -4.06291974E-06
  0.405999988      -1.58069145E-06
  0.406500012       1.17261891E-06
  0.407000005       4.22399489E-06
  0.407499999       7.58941633E-06
  0.407999992       1.13051601E-05
  0.408499986       1.53741839E-05
  0.409000009       1.98365888E-05
  0.409500003       2.47279149E-05
  0.409999996       3.00570773E-05
  0.410499990       3.58707912E-05
  0.411000013       4.21923651E-05
  0.411500007       4.90576749E-05
  0.412000000       5.65098017E-05
  0.412499994       6.45880136E-05
  0.412999988       7.33303896E-05
  0.413500011       8.27657714E-05
  0.414000005       9.29609960E-05
  0.414499998       1.03964761E-04
  0.414999992       1.15807452E-04
  0.415499985       1.28554690E-04
  0.416000009       1.42269171E-04
  0.416500002       1.57011964E-04
  0.416999996       1.72833752E-04
  0.417499989       1.89814891E-04
  0.418000013       2.08020181E-04
  0.418500006       2.27523895E-04
  0.419000000       2.48414784E-04
  0.419499993       2.70766148E-04
  0.419999987       2.94647500E-04
  0.420500010       3.20196996E-04
  0.421000004       3.47472058E-04
  0.421499997       3.76576820E-04
  0.421999991       4.07636166E-04
  0.422500014       4.40772623E-04
  0.423000008       4.76088404E-04
  0.423500001       5.13728999E-04
  0.423999995       5.53785649E-04
  0.424499989       5.96417231E-04
  0.425000012       6.41789287E-04
  0.425500005       6.90000015E-04
  0.425999999       7.41270720E-04
  0.426499993       7.95724802E-04
  0.426999986       8.53556965E-04
  0.427500010       9.14966164E-04
  0.428000003       9.80121666E-04