   0.00000000       0.00000000    
   5.00000024E-04   0.00000000    
   1.00000005E-03   0.00000000    
   1.50000001E-03   0.00000000    
   2.00000009E-03   0.00000000    
   2.49999994E-03   0.00000000    
   3.00000003E-03   0.00000000    
   3.50000011E-03   0.00000000    
   4.00000019E-03   0.00000000    
   4.49999981E-03   0.00000000    
   4.99999989E-03   0.00000000    
   5.49999997E-03   0.00000000    
   6.00000005E-03   0.00000000    
   6.50000013E-03   0.00000000    
   7.00000022E-03   0.00000000    
   7.49999983E-03   1.30432777E-38
   8.00000038E-03   0.00000000    
   8.50000046E-03  -1.63270474E-37
   8.99999961E-03  -1.20935645E-36
   9.49999969E-03  -5.85986409E-36
   9.99999978E-03  -2.31330975E-35
   1.04999999E-02  -7.97514257E-35
   1.09999999E-02  -2.48238050E-34
   1.15000000E-02  -7.11441829E-34
   1.20000001E-02  -1.90198402E-33
   1.25000002E-02  -4.78771612E-33
   1.30000003E-02  -1.14280664E-32
   1.35000004E-02  -2.60104456E-32
   1.40000004E-02  -5.67016157E-32
   1.44999996E-02  -1.18826328E-31
   1.49999997E-02  -2.40122674E-31
   1.54999997E-02  -4.69118260E-31
   1.60000008E-02  -8.88009340E-31
   1.64999999E-02  -1.63176107E-30
   1.70000009E-02  -2.91540561E-30
   1.75000001E-02  -5.07156750E-30
   1.79999992E-02  -8.59988056E-30
   1.85000002E-02  -1.42289480E-29
   1.89999994E-02  -2.29894360E-29
   1.95000004E-02  -3.62934095E-29
   1.99999996E-02  -5.60096419E-29
   2.05000006E-02  -8.45168476E-29
   2.09999997E-02  -1.24706323E-28
   2.15000007E-02  -1.79891932E-28
   2.19999999E-02  -2.53569140E-28
   2.25000009E-02  -3.48946463E-28
   2.30000000E-02  -4.68152643E-28
   2.34999992E-02  -6.11005608E-28
   2.40000002E-02  -7.73215180E-28
   2.44999994E-02  -9.43886229E-28
   2.50000004E-02  -1.10220056E-27
   2.54999995E-02  -1.21318304E-27
   2.60000005E-02  -1.22252438E-27
   2.64999997E-02  -1.05052015E-27
   2.70000007E-02  -5.85331469E-28
   2.74999999E-02   3.24039735E-28
   2.80000009E-02   1.87442942E-27
   2.85000000E-02   4.31392361E-27
   2.89999992E-02   7.94475299E-27
   2.95000002E-02   1.31220679E-26
   2.99999993E-02   2.02466359E-26
   3.05000003E-02   2.97492081E-26
   3.09999995E-02   4.20640541E-26
   3.15000005E-02   5.75891202E-26
   3.20000015E-02   7.66304167E-26
   3.24999988E-02   9.93286135E-26
   3.29999998E-02   1.25566614E-25
   3.35000008E-02   1.54858425E-25
   3.40000018E-02   1.86220662E-25
   3.44999991E-02   2.18030998E-25
   3.50000001E-02   2.47880237E-25
   3.55000012E-02   2.72428035E-25
   3.59999985E-02   2.87275063E-25
   3.64999995E-02   2.86869687E-25
   3.70000005E-02   2.64469119E-25
   3.75000015E-02   2.12178907E-25
   3.79999988E-02   1.21096768E-25
   3.84999998E-02  -1.84118764E-26
   3.90000008E-02  -2.16281058E-25
   3.95000018E-02  -4.82130782E-25
   3.99999991E-02  -8.24456331E-25
   4.05000001E-02  -1.24961099E-24
   4.10000011E-02  -1.76058923E-24
   4.14999984E-02  -2.35562958E-24
   4.19999994E-02  -3.02667707E-24
   4.25000004E-02  -3.75776772E-24
   4.30000015E-02  -4.52342901E-24
   4.34999987E-02  -5.28719507E-24
   4.39999998E-02  -6.00038962E-24
   4.45000008E-02  -6.60132847E-24
   4.50000018E-02  -7.01512230E-24
   4.54999991E-02  -7.15426317E-24
   4.60000001E-02  -6.92018921E-24
   4.65000011E-02  -6.20600818E-24
   4.69999984E-02  -4.90051044E-24
   4.74999994E-02  -2.89360373E-24
   4.80000004E-02  -8.31950460E-26
   4.85000014E-02   3.61650442E-24
   4.89999987E-02   8.26538874E-24
   4.94999997E-02   1.38868171E-23
   5.00000007E-02   2.04563040E-23
   5.05000018E-02   2.78900101E-23
   5.09999990E-02   3.60337241E-23
   5.15000001E-02   4.46530014E-23
   5.20000011E-02   5.34253776E-23
   5.24999984E-02   6.19355712E-23
   5.29999994E-02   6.96746501E-23
   5.35000004E-02   7.60440897E-23
   5.40000014E-02   8.03656654E-23
   5.44999987E-02   8.18979299E-23
   5.49999997E-02   7.98597216E-23
   5.55000007E-02   7.34612329E-23
   5.60000017E-02   6.19422102E-23
   5.64999990E-02   4.46170956E-23
   5.70000000E-02   2.09260833E-23
   5.75000010E-02  -9.50955650E-24
   5.79999983E-02  -4.68295664E-23
   5.84999993E-02  -9.08769593E-23
   5.90000004E-02  -1.41143220E-22
   5.95000014E-02  -1.96719948E-22
   5.99999987E-02  -2.56260468E-22
   6.04999997E-02  -3.17955071E-22
   6.10000007E-02  -3.79524238E-22
   6.15000017E-02  -4.38232402E-22
   6.19999990E-02  -4.90926291E-22
   6.25000000E-02  -5.34099525E-22
   6.30000010E-02  -5.63985363E-22
   6.35000020E-02  -5.76678173E-22
   6.40000030E-02  -5.68281209E-22
   6.44999966E-02  -5.35080894E-22
   6.49999976E-02  -4.73740938E-22
   6.54999986E-02  -3.81512218E-22
   6.59999996E-02  -2.56450400E-22
   6.65000007E-02  -9.76333510E-23
   6.70000017E-02   9.46319498E-23
   6.75000027E-02   3.18624151E-22
   6.80000037E-02   5.71054466E-22
   6.84999973E-02   8.46957873E-22
   6.89999983E-02   1.13963930E-21
   6.94999993E-02   1.44068377E-21
   7.00000003E-02   1.74004227E-21
   7.05000013E-02   2.02619204E-21
   7.10000023E-02   2.28638517E-21
   7.15000033E-02   2.50697502E-21
   7.19999969E-02   2.67382397E-21
   7.24999979E-02   2.77278171E-21
   7.29999989E-02   2.79022500E-21
   7.34999999E-02   2.71364335E-21
   7.40000010E-02   2.53224785E-21
   7.45000020E-02   2.23759202E-21
   7.50000030E-02   1.82416630E-21
   7.54999965E-02   1.28995242E-21
   7.59999976E-02   6.36906857E-22
   7.64999986E-02  -1.28653343E-22
   7.69999996E-02  -9.95784195E-22
   7.75000006E-02  -1.94879067E-21
   7.80000016E-02  -2.96726185E-21
   7.85000026E-02  -4.02627659E-21
   7.90000036E-02  -5.09678845E-21
   7.94999972E-02  -6.14619065E-21
   7.99999982E-02  -7.13904528E-21
   8.04999992E-02  -8.03798543E-21
   8.10000002E-02  -8.80473581E-21
   8.15000013E-02  -9.40126228E-21
   8.20000023E-02  -9.79098471E-21
   8.25000033E-02  -9.94005009E-21
   8.29999968E-02  -9.81858540E-21
   8.34999979E-02  -9.40193356E-21
   8.39999989E-02  -8.67179157E-21
   8.44999999E-02  -7.61724938E-21
   8.50000009E-02  -6.23565298E-21
   8.55000019E-02  -4.53329267E-21
   8.60000029E-02  -2.52587880E-21
   8.64999965E-02  -2.38782844E-22
   8.69999975E-02   2.29296263E-21
   8.74999985E-02   5.02490856E-21
   8.79999995E-02   7.90368248E-21
   8.85000005E-02   1.08677065E-20
   8.90000015E-02   1.38481408E-20
   8.95000026E-02   1.67700319E-20
   9.00000036E-02   1.95536223E-20
   9.04999971E-02   2.21158272E-20
   9.09999982E-02   2.43718509E-20
   9.14999992E-02   2.62368863E-20
   9.20000002E-02   2.76279585E-20
   9.25000012E-02   2.84657955E-20
   9.30000022E-02   2.86768009E-20
   9.35000032E-02   2.81950942E-20
   9.39999968E-02   2.69645871E-20
   9.44999978E-02   2.49411094E-20
   9.49999988E-02   2.20946145E-20
   9.54999998E-02   1.84113392E-20
   9.60000008E-02   1.38960446E-20
   9.65000018E-02   8.57414226E-21
   9.70000029E-02   2.49378314E-21
   9.74999964E-02  -4.27223883E-21
   9.79999974E-02  -1.16248336E-20
   9.84999985E-02  -1.94373372E-20
   9.89999995E-02  -2.75547239E-20
   9.95000005E-02  -3.57934719E-20
  0.100000001      -4.39422834E-20
  0.100500003      -5.17636993E-20
  0.101000004      -5.89969770E-20
  0.101499997      -6.53622287E-20
  0.101999998      -7.05659703E-20
  0.102499999      -7.43083034E-20
  0.103000000      -7.62916111E-20
  0.103500001      -7.62308391E-20
  0.104000002      -7.38652835E-20
  0.104500003      -6.89716184E-20
  0.104999997      -6.13779453E-20
  0.105499998      -5.09784885E-20
  0.105999999      -3.77483776E-20
  0.106500000      -2.17579601E-20
  0.107000001      -3.18597579E-21
  0.107500002       1.76691999E-20
  0.108000003       4.03810479E-20
  0.108499996       6.43899619E-20
  0.108999997       8.90027081E-20
  0.109499998       1.13397169E-19
  0.109999999       1.36632776E-19
  0.110500000       1.57667682E-19
  0.111000001       1.75382478E-19
  0.111500002       1.88611087E-19
  0.112000003       1.96178355E-19
  0.112499997       1.96944208E-19
  0.112999998       1.89853370E-19
  0.113499999       1.73989467E-19
  0.114000000       1.48632620E-19
  0.114500001       1.13317605E-19
  0.115000002       6.78918311E-20
  0.115500003       1.25692703E-20
  0.115999997      -5.20210301E-20
  0.116499998      -1.24795511E-19
  0.116999999      -2.04188151E-19
  0.117500000      -2.88136863E-19
  0.118000001      -3.74086590E-19
  0.118500002      -4.59012086E-19
  0.119000003      -5.39460881E-19
  0.119499996      -6.11619154E-19
  0.119999997      -6.71400428E-19
  0.120499998      -7.14555526E-19
  0.120999999      -7.36806271E-19
  0.121500000      -7.33996338E-19
  0.122000001      -7.02259590E-19
  0.122500002      -6.38200603E-19
  0.123000003      -5.39082084E-19
  0.123499997      -4.03013820E-19
  0.123999998      -2.29136965E-19
  0.124499999      -1.77948409E-20
  0.125000000       2.29314964E-19
  0.125499994       5.09017636E-19
  0.126000002       8.16572486E-19
  0.126499996       1.14562757E-18
  0.127000004       1.48822417E-18
  0.127499998       1.83485452E-18
  0.128000006       2.17458111E-18
  0.128500000       2.49521493E-18
  0.128999993       2.78355975E-18
  0.129500002       3.02571605E-18
  0.129999995       3.20744059E-18
  0.130500004       3.31456627E-18
  0.130999997       3.33345639E-18
  0.131500006       3.25150037E-18
  0.131999999       3.05762867E-18
  0.132499993       2.74283372E-18
  0.133000001       2.30068500E-18
  0.133499995       1.72781672E-18
  0.134000003       1.02437075E-18
  0.134499997       1.94380646E-19
  0.135000005      -7.53926997E-19
  0.135499999      -1.80792462E-18
  0.136000007      -2.95048914E-18
  0.136500001      -4.16003233E-18
  0.136999995      -5.41066325E-18
  0.137500003      -6.67249667E-18
  0.137999997      -7.91210498E-18
  0.138500005      -9.09310466E-18
  0.138999999      -1.01769032E-17
  0.139500007      -1.11235444E-17
  0.140000001      -1.18926974E-17
  0.140499994      -1.24447148E-17
  0.141000003      -1.27417752E-17
  0.141499996      -1.27490717E-17
  0.142000005      -1.24359988E-17
  0.142499998      -1.17773372E-17
  0.143000007      -1.07543778E-17
  0.143500000      -9.35595205E-18
  0.143999994      -7.57934676E-18
  0.144500002      -5.43106317E-18
  0.144999996      -2.92737792E-18
  0.145500004      -9.47004510E-20
  0.145999998       3.03031641E-18
  0.146500006       6.40091549E-18
  0.147000000       9.96065086E-18
  0.147499993       1.36440572E-17
  0.148000002       1.73776204E-17
  0.148499995       2.10809825E-17
  0.149000004       2.46683903E-17
  0.149499997       2.80503993E-17
  0.150000006       3.11357003E-17
  0.150500000       3.38331627E-17
  0.150999993       3.60539342E-17
  0.151500002       3.77136424E-17
  0.151999995       3.87345487E-17
  0.152500004       3.90476895E-17
  0.152999997       3.85949338E-17
  0.153500006       3.73308166E-17
  0.153999999       3.52242324E-17
  0.154499993       3.22598553E-17
  0.155000001       2.84392106E-17
  0.155499995       2.37814724E-17
  0.156000003       1.83238687E-17
  0.156499997       1.21216668E-17
  0.157000005       5.24781206E-18
  0.157499999      -2.20789974E-18
  0.158000007      -1.01400018E-17
  0.158500001      -1.84289504E-17
  0.158999994      -2.69430675E-17
  0.159500003      -3.55408043E-17
  0.159999996      -4.40733047E-17
  0.160500005      -5.23871812E-17
  0.160999998      -6.03274600E-17
  0.161500007      -6.77406592E-17
  0.162000000      -7.44778998E-17
  0.162499994      -8.03980182E-17
  0.163000003      -8.53705251E-17
  0.163499996      -8.92784770E-17
  0.164000005      -9.20210903E-17
  0.164499998      -9.35160505E-17
  0.165000007      -9.37015110E-17
  0.165500000      -9.25376282E-17
  0.165999994      -9.00077591E-17
  0.166500002      -8.61190574E-17
  0.166999996      -8.09026182E-17
  0.167500004      -7.44131679E-17
  0.167999998      -6.67280115E-17
  0.168500006      -5.79456894E-17
  0.169000000      -4.81839324E-17
  0.169499993      -3.75772105E-17
  0.170000002      -2.62737775E-17
  0.170499995      -1.44323347E-17
  0.171000004      -2.21825376E-18
  0.171499997       1.02004034E-17
  0.172000006       2.26571668E-17
  0.172499999       3.49915432E-17
  0.172999993       4.70534842E-17
  0.173500001       5.87077808E-17
  0.173999995       6.98382966E-17
  0.174500003       8.03519938E-17
  0.174999997       9.01825193E-17
  0.175500005       9.92933181E-17
  0.175999999       1.07680221E-16
  0.176499993       1.15373114E-16
  0.177000001       1.22436998E-16
  0.177499995       1.28971897E-16
  0.178000003       1.35111946E-16
  0.178499997       1.41023151E-16
  0.179000005       1.46900051E-16
  0.179499999       1.52961193E-16
  0.180000007       1.59443245E-16
  0.180500001       1.66593897E-16
  0.180999994       1.74663554E-16
  0.181500003       1.83895697E-16
  0.181999996       1.94516484E-16
  0.182500005       2.06723010E-16
  0.182999998       2.20671167E-16
  0.183500007       2.36462614E-16
  0.184000000       2.54131828E-16
  0.184499994       2.73632750E-16
  0.185000002       2.94826096E-16
  0.185499996       3.17467128E-16
  0.186000004       3.41194612E-16
  0.186499998       3.65521372E-16
  0.187000006       3.89826506E-16
  0.187500000       4.13350199E-16
  0.187999994       4.35191261E-16
  0.188500002       4.54307921E-16
  0.188999996       4.69522221E-16
  0.189500004       4.79528115E-16
  0.189999998       4.82904230E-16
  0.190500006       4.78130935E-16
  0.191000000       4.63611731E-16
  0.191499993       4.37699882E-16
  0.192000002       3.98729325E-16
  0.192499995       3.45049962E-16
  0.193000004       2.75067438E-16
  0.193499997       1.87286555E-16
  0.194000006       8.03581017E-17
  0.194499999      -4.68721431E-17
  0.194999993      -1.95311980E-16
  0.195500001      -3.65570923E-16
  0.195999995      -5.57908309E-16
  0.196500003      -7.72182710E-16
  0.196999997      -1.00780319E-15
  0.197500005      -1.26368560E-15
  0.197999999      -1.53821236E-15
  0.198500007      -1.82919878E-15
  0.199000001      -2.13386891E-15
  0.199499995      -2.44883599E-15
  0.200000003      -2.77009759E-15
  0.200499997      -3.09303822E-15
  0.201000005      -3.41244608E-15
  0.201499999      -3.72254040E-15
  0.202000007      -4.01701394E-15
  0.202500001      -4.28908812E-15
  0.202999994      -4.53158053E-15
  0.203500003      -4.73698941E-15
  0.203999996      -4.89758516E-15
  0.204500005      -5.00552172E-15
  0.204999998      -5.05295048E-15
  0.205500007      -5.03215371E-15
  0.206000000      -4.93567750E-15
  0.206499994      -4.75647540E-15
  0.207000002      -4.48805913E-15
  0.207499996      -4.12464472E-15
  0.208000004      -3.66130669E-15
  0.208499998      -3.09412242E-15
  0.209000006      -2.42031597E-15
  0.209500000      -1.63839264E-15
  0.209999993      -7.48263241E-16
  0.210500002       2.48643901E-16
  0.210999995       1.34928823E-15
  0.211500004       2.54893686E-15
  0.211999997       3.84110637E-15
  0.212500006       5.21752433E-15
  0.213000000       6.66811526E-15
  0.213499993       8.18100928E-15
  0.214000002       9.74257465E-15
  0.214499995       1.13374826E-14
  0.215000004       1.29487849E-14
  0.215499997       1.45580247E-14
  0.216000006       1.61453780E-14
  0.216499999       1.76897969E-14
  0.216999993       1.91692077E-14
  0.217500001       2.05606897E-14
  0.217999995       2.18407073E-14
  0.218500003       2.29853334E-14
  0.218999997       2.39705056E-14
  0.219500005       2.47722748E-14
  0.219999999       2.53670698E-14
  0.220500007       2.57319665E-14
  0.221000001       2.58449708E-14
  0.221499994       2.56852763E-14
  0.222000003       2.52335418E-14
  0.222499996       2.44721507E-14
  0.223000005       2.33854582E-14
  0.223499998       2.19600542E-14
  0.224000007       2.01849662E-14
  0.224500000       1.80519120E-14
  0.224999994       1.55554704E-14
  0.225500003       1.26932868E-14
  0.225999996       9.46623439E-15
  0.226500005       5.87856197E-15
  0.226999998       1.93803214E-15
  0.227500007      -2.34397522E-15
  0.228000000      -6.95236046E-15
  0.228499994      -1.18682411E-14
  0.229000002      -1.70688947E-14
  0.229499996      -2.25277221E-14
  0.230000004      -2.82142372E-14
  0.230499998      -3.40940858E-14
  0.231000006      -4.01290431E-14
  0.231500000      -4.62770996E-14
  0.231999993      -5.24924986E-14
  0.232500002      -5.87258513E-14
  0.232999995      -6.49242623E-14
  0.233500004      -7.10314443E-14
  0.233999997      -7.69878952E-14
  0.234500006      -8.27311445E-14
  0.234999999      -8.81959368E-14
  0.235499993      -9.33145027E-14
  0.236000001      -9.80168841E-14
  0.236499995      -1.02231286E-13
  0.237000003      -1.05884424E-13
  0.237499997      -1.08901982E-13
  0.238000005      -1.11209083E-13
  0.238499999      -1.12730781E-13
  0.238999993      -1.13392680E-13
  0.239500001      -1.13121582E-13
  0.239999995      -1.11846018E-13
  0.240500003      -1.09497182E-13
  0.240999997      -1.06009494E-13
  0.241500005      -1.01321600E-13
  0.241999999      -9.53771160E-14
  0.242500007      -8.81255992E-14
  0.243000001      -7.95234375E-14
  0.243499994      -6.95348998E-14
  0.244000003      -5.81330435E-14
  0.244499996      -4.53007518E-14
  0.245000005      -3.10317296E-14
  0.245499998      -1.53315318E-14
  0.246000007       1.78149939E-15
  0.246500000       2.02752887E-14
  0.246999994       4.01031035E-14
  0.247500002       6.12027586E-14
  0.247999996       8.34958798E-14
  0.248500004       1.06887155E-13
  0.248999998       1.31263923E-13
  0.249500006       1.56495652E-13
  0.250000000       1.82433726E-13
  0.250499994       2.08911325E-13
  0.250999987       2.35743499E-13
  0.251500010       2.62727259E-13
  0.252000004       2.89642361E-13
  0.252499998       3.16251691E-13
  0.252999991       3.42302196E-13
  0.253500015       3.67526322E-13
  0.254000008       3.91642936E-13
  0.254500002       4.14359167E-13
  0.254999995       4.35372333E-13
  0.255499989       4.54372054E-13
  0.256000012       4.71042205E-13
  0.256500006       4.85063975E-13
  0.256999999       4.96118554E-13
  0.257499993       5.03889628E-13
  0.257999986       5.08067492E-13
  0.258500010       5.08351499E-13
  0.259000003       5.04453792E-13
  0.259499997       4.96103213E-13
  0.259999990       4.83048660E-13
  0.260500014       4.65062830E-13
  0.261000007       4.41945851E-13
  0.261500001       4.13529210E-13
  0.261999995       3.79679225E-13
  0.262499988       3.40300352E-13
  0.263000011       2.95338894E-13
  0.263500005       2.44785962E-13
  0.263999999       1.88680194E-13
  0.264499992       1.27110575E-13
  0.264999986       6.02186622E-14
  0.265500009      -1.17996280E-14
  0.266000003      -8.86924201E-14
  0.266499996      -1.70150786E-13
  0.266999990      -2.55808450E-13
  0.267500013      -3.45241441E-13
  0.268000007      -4.37968861E-13
  0.268500000      -5.33453544E-13
  0.268999994      -6.31104110E-13
  0.269499987      -7.30276571E-13
  0.270000011      -8.30277741E-13
  0.270500004      -9.30368087E-13
  0.270999998      -1.02976547E-12
  0.271499991      -1.12765017E-12
  0.272000015      -1.22316903E-12
  0.272500008      -1.31544168E-12
  0.273000002      -1.40356617E-12
  0.273499995      -1.48662452E-12
  0.273999989      -1.56369069E-12
  0.274500012      -1.63383651E-12
  0.275000006      -1.69613965E-12
  0.275500000      -1.74969024E-12
  0.275999993      -1.79359956E-12
  0.276499987      -1.82700751E-12
  0.277000010      -1.84908967E-12
  0.277500004      -1.85906499E-12
  0.277999997      -1.85620443E-12
  0.278499991      -1.83983753E-12
  0.279000014      -1.80935985E-12
  0.279500008      -1.76423936E-12
  0.280000001      -1.70402364E-12
  0.280499995      -1.62834546E-12
  0.280999988      -1.53692911E-12
  0.281500012      -1.42959451E-12
  0.282000005      -1.30626250E-12
  0.282499999      -1.16695857E-12
  0.282999992      -1.01181639E-12
  0.283499986      -8.41080460E-13
  0.284000009      -6.55108509E-13
  0.284500003      -4.54371973E-13
  0.284999996      -2.39457380E-13
  0.285499990      -1.10664905E-14
  0.286000013       2.29984868E-13
  0.286500007       4.82768014E-13
  0.287000000       7.46243508E-13
  0.287499994       1.01926377E-12
  0.287999988       1.30057705E-12
  0.288500011       1.58883063E-12
  0.289000005       1.88257634E-12
  0.289499998       2.18027549E-12
  0.289999992       2.48030416E-12
  0.290499985       2.78096144E-12
  0.291000009       3.08047511E-12
  0.291500002       3.37700809E-12
  0.291999996       3.66866997E-12
  0.292499989       3.95352154E-12
  0.293000013       4.22958717E-12
  0.293500006       4.49486065E-12
  0.294000000       4.74731929E-12
  0.294499993       4.98493044E-12
  0.294999987       5.20566359E-12
  0.295500010       5.40750127E-12
  0.296000004       5.58845158E-12
  0.296499997       5.74655601E-12
  0.296999991       5.87990464E-12
  0.297500014       5.98664824E-12
  0.298000008       6.06500614E-12
  0.298500001       6.11328262E-12
  0.298999995       6.12987872E-12
  0.299499989       6.11330127E-12
  0.300000012       6.06217940E-12
  0.300500005       5.97527496E-12
  0.300999999       5.85149117E-12
  0.301499993       5.68988997E-12
  0.301999986       5.48970071E-12
  0.302500010       5.25032708E-12
  0.303000003       4.97136490E-12
  0.303499997       4.65260469E-12
  0.303999990       4.29404776E-12
  0.304500014       3.89590617E-12
  0.305000007       3.45861360E-12
  0.305500001       2.98283577E-12
  0.305999994       2.46946777E-12
  0.306499988       1.91964131E-12
  0.307000011       1.33472899E-12
  0.307500005       7.16341645E-13
  0.307999998       6.63314347E-14
  0.308499992      -6.13214883E-13
  0.308999985      -1.31997386E-12
  0.309500009      -2.05139529E-12
  0.310000002      -2.80470720E-12
  0.310499996      -3.57692565E-12
  0.310999990      -4.36486264E-12
  0.311500013      -5.16514045E-12
  0.312000006      -5.97420594E-12
  0.312500000      -6.78834202E-12
  0.312999994      -7.60368938E-12
  0.313499987      -8.41626161E-12
  0.314000010      -9.22196607E-12
  0.314500004      -1.00166238E-11
  0.314999998      -1.07959917E-11
  0.315499991      -1.15557858E-11
  0.316000015      -1.22917076E-11
  0.316500008      -1.29994626E-11
  0.317000002      -1.36747905E-11
  0.317499995      -1.43134888E-11
  0.317999989      -1.49114332E-11
  0.318500012      -1.54646105E-11
  0.319000006      -1.59691357E-11
  0.319499999      -1.64212931E-11
  0.319999993      -1.68175335E-11
  0.320499986      -1.71545157E-11
  0.321000010      -1.74291206E-11
  0.321500003      -1.76384844E-11
  0.321999997      -1.77800049E-11
  0.322499990      -1.78513541E-11
  0.323000014      -1.78505145E-11
  0.323500007      -1.77757808E-11
  0.324000001      -1.76257793E-11
  0.324499995      -1.73994690E-11
  0.324999988      -1.70961648E-11
  0.325500011      -1.67155387E-11
  0.326000005      -1.62576237E-11
  0.326499999      -1.57228258E-11
  0.326999992      -1.51119256E-11
  0.327499986      -1.44260688E-11
  0.328000009      -1.36667865E-11
  0.328500003      -1.28359762E-11
  0.328999996      -1.19359106E-11
  0.329499990      -1.09692273E-11
  0.330000013      -9.93893075E-12
  0.330500007      -8.84838904E-12
  0.331000000      -7.70131701E-12
  0.331499994      -6.50178435E-12
  0.331999987      -5.25420592E-12
  0.332500011      -3.96332663E-12
  0.333000004      -2.63424113E-12
  0.333499998      -1.27235581E-12
  0.333999991       1.16589274E-13
  0.334500015       1.52653573E-12
  0.335000008       2.95110681E-12
  0.335500002       4.38361023E-12
  0.335999995       5.81704390E-12
  0.336499989       7.24408424E-12
  0.337000012       8.65709848E-12
  0.337500006       1.00481299E-11
  0.338000000       1.14089103E-11
  0.338499993       1.27308494E-11
  0.338999987       1.40050185E-11
  0.339500010       1.52221673E-11
  0.340000004       1.63727001E-11
  0.340499997       1.74466795E-11
  0.340999991       1.84338135E-11
  0.341500014       1.93234595E-11
  0.342000008       2.01045968E-11
  0.342500001       2.07658387E-11
  0.342999995       2.12954255E-11
  0.343499988       2.16812089E-11
  0.344000012       2.19106452E-11
  0.344500005       2.19708071E-11
  0.344999999       2.18483755E-11
  0.345499992       2.15296236E-11
  0.345999986       2.10004323E-11
  0.346500009       2.02462890E-11
  0.347000003       1.92522907E-11
  0.347499996       1.80031406E-11
  0.347999990       1.64831811E-11
  0.348500013       1.46763591E-11
  0.349000007       1.25662831E-11
  0.349500000       1.01362070E-11
  0.349999994       7.36905849E-12
  0.350499988       4.24744398E-12
  0.351000011       7.53673274E-13
  0.351500005      -3.13021245E-12
  0.351999998      -7.42244374E-12
  0.352499992      -1.21414771E-11
  0.352999985      -1.73059900E-11
  0.353500009      -2.29348537E-11
  0.354000002      -2.90471050E-11
  0.354499996      -3.56619283E-11
  0.354999989      -4.27986362E-11
  0.355500013      -5.04766506E-11
  0.356000006      -5.87154769E-11
  0.356500000      -6.75346723E-11
  0.356999993      -7.69538877E-11
  0.357499987      -8.69927810E-11
  0.358000010      -9.76710449E-11
  0.358500004      -1.09008379E-10
  0.358999997      -1.21024538E-10
  0.359499991      -1.33739214E-10
  0.360000014      -1.47172191E-10
  0.360500008      -1.61343217E-10
  0.361000001      -1.76272136E-10
  0.361499995      -1.91978697E-10
  0.361999989      -2.08482856E-10
  0.362500012      -2.25804611E-10
  0.363000005      -2.43963960E-10
  0.363499999      -2.62981137E-10
  0.363999993      -2.82876528E-10
  0.364499986      -3.03670811E-10
  0.365000010      -3.25384580E-10
  0.365500003      -3.48039209E-10
  0.365999997      -3.71655956E-10
  0.366499990      -3.96256777E-10
  0.367000014      -4.21863877E-10
  0.367500007      -4.48500237E-10
  0.368000001      -4.76189144E-10
  0.368499994      -5.04954689E-10
  0.368999988      -5.34821576E-10
  0.369500011      -5.65815450E-10
  0.370000005      -5.97962624E-10
  0.370499998      -6.31290298E-10
  0.370999992      -6.65827282E-10
  0.371499985      -7.01602554E-10
  0.372000009      -7.38646921E-10
  0.372500002      -7.76992082E-10
  0.372999996      -8.16671453E-10
  0.373499990      -8.57719618E-10
  0.374000013      -9.00172603E-10
  0.374500006      -9.44068601E-10
  0.375000000      -9.89446747E-10
  0.375499994      -1.03634812E-09
  0.375999987      -1.08481613E-09
  0.376500010      -1.13489573E-09
  0.377000004      -1.18663390E-09
  0.377499998      -1.24008015E-09
  0.377999991      -1.29528543E-09
  0.378500015      -1.35230338E-09
  0.379000008      -1.41119050E-09
  0.379500002      -1.47200452E-09
  0.379999995      -1.53480673E-09
  0.380499989      -1.59966018E-09
  0.381000012      -1.66663117E-09
  0.381500006      -1.73578762E-09
  0.381999999      -1.80720083E-09
  0.382499993      -1.88094429E-09
  0.382999986      -1.95709471E-09
  0.383500010      -2.03573025E-09
  0.384000003      -2.11693285E-09
  0.384499997      -2.20078644E-09
  0.384999990      -2.28737673E-09
  0.385500014      -2.37679276E-09
  0.386000007      -2.46912557E-09
  0.386500001      -2.56446775E-09
  0.386999995      -2.66291367E-09
  0.387499988      -2.76456058E-09
  0.388000011      -2.86950530E-09
  0.388500005      -2.97784641E-09
  0.388999999      -3.08968495E-09
  0.389499992      -3.20511928E-09
  0.389999986      -3.32425110E-09
  0.390500009      -3.44717876E-09
  0.391000003      -3.57400376E-09
  0.391499996      -3.70482023E-09
  0.391999990      -3.83972676E-09
  0.392500013      -3.97881417E-09
  0.393000007      -4.12217194E-09
  0.393500000      -4.26988533E-09
  0.393999994      -4.42203607E-09
  0.394499987      -4.57869742E-09
  0.395000011      -4.73993644E-09
  0.395500004      -4.90581353E-09
  0.395999998      -5.07637621E-09
  0.396499991      -5.25166843E-09
  0.397000015      -5.43171685E-09
  0.397500008      -5.61653435E-09
  0.398000002      -5.80612403E-09
  0.398499995      -6.00046857E-09
  0.398999989      -6.19953333E-09
  0.399500012      -6.40326547E-09
  0.400000006      -6.61158817E-09
  0.400500000      -6.82440149E-09
  0.400999993      -7.04157932E-09
  0.401499987      -7.26296578E-09
  0.402000010      -7.48837259E-09
  0.402500004      -7.71758124E-09
  0.402999997      -7.95032928E-09
  0.403499991      -8.18632184E-09
  0.404000014      -8.42521253E-09
  0.404500008      -8.66661054E-09
  0.405000001      -8.91007712E-09
  0.405499995      -9.15511755E-09
  0.405999988      -9.40117051E-09
  0.406500012      -9.64762137E-09
  0.407000005      -9.89377646E-09
  0.407499999      -1.01388773E-08
  0.407999992      -1.03820774E-08
  0.408499986      -1.06224540E-08
  0.409000009      -1.08589866E-08
  0.409500003      -1.10905631E-08
  0.409999996      -1.13159571E-08
  0.410499990      -1.15338343E-08
  0.411000013      -1.17427454E-08
  0.411500007      -1.19411050E-08
  0.412000000      -1.21272059E-08
  0.412499994      -1.22991741E-08
  0.412999988      -1.24549961E-08
  0.413500011      -1.25924853E-08
  0.414000005      -1.27092843E-08
  0.414499998      -1.28028450E-08
  0.414999992      -1.28704087E-08
  0.415499985      -1.29090258E-08
  0.416000009      -1.29155051E-08
  0.416500002      -1.28864155E-08
  0.416999996      -1.28180728E-08
  0.417499989      -1.27065185E-08
  0.418000013      -1.25475097E-08
  0.418500006      -1.23364998E-08
  0.419000000      -1.20686066E-08
  0.419499993      -1.17386083E-08
  0.419999987      -1.13409273E-08
  0.420500010      -1.08695799E-08
  0.421000004      -1.03181836E-08
  0.421499997      -9.67991376E-09
  0.421999991      -8.94750762E-09
  0.422500014      -8.11318923E-09
  0.423000008      -7.16868120E-09
  0.423500001      -6.10514528E-09
  0.423999995      -4.91317831E-09
  0.424499989      -3.58276320E-09
  0.425000012      -2.10324558E-09
  0.425500005      -4.63281746E-10
  0.425999999       1.34918143E-09
  0.426499993       3.34695938E-09
  0.426999986       5.54367929E-09
  0.427500010       7.95378163E-09
  0.428000003       1.05926210E-08