   0.00000000       0.00000000    
   5.00000024E-04   0.00000000    
   1.00000005E-03   0.00000000    
   1.50000001E-03   0.00000000    
   2.00000009E-03   5.38323377E-22
   2.49999994E-03   4.64566240E-21
   3.00000003E-03   2.20017991E-20
   3.50000011E-03   7.53667779E-20
   4.00000019E-03   2.07888557E-19
   4.49999981E-03   4.87664744E-19
   4.99999989E-03   1.00315243E-18
   5.49999997E-03   1.84013710E-18
   6.00000005E-03   3.02873443E-18
   6.50000013E-03   4.44831967E-18
   7.00000022E-03   5.68055243E-18
   7.49999983E-03   5.80695266E-18
   8.00000038E-03   3.15869257E-18
   8.50000046E-03  -4.95727397E-18
   8.99999961E-03  -2.25105524E-17
   9.49999969E-03  -5.49089439E-17
   9.99999978E-03  -1.08976678E-16
   1.04999999E-02  -1.92637593E-16
   1.09999999E-02  -3.14183367E-16
   1.15000000E-02  -4.81015135E-16
   1.20000001E-02  -6.97777166E-16
   1.25000002E-02  -9.63859861E-16
   1.30000003E-02  -1.27033544E-15
   1.35000004E-02  -1.59650697E-15
   1.40000004E-02  -1.90638571E-15
   1.44999996E-02  -2.14556389E-15
   1.49999997E-02  -2.23908840E-15
   1.54999997E-02  -2.09106198E-15
   1.60000008E-02  -1.58675518E-15
   1.64999999E-02  -5.98008967E-16
   1.70000009E-02   1.00741228E-15
   1.75000001E-02   3.35209329E-15
   1.79999992E-02   6.53079385E-15
   1.85000002E-02   1.05882591E-14
   1.89999994E-02   1.54940300E-14
   1.95000004E-02   2.11159452E-14
   1.99999996E-02   2.71947043E-14
   2.05000006E-02   3.33225099E-14
   2.09999997E-02   3.89292785E-14
   2.15000007E-02   4.32802326E-14
   2.19999999E-02   4.54885966E-14
   2.25000009E-02   4.45467604E-14
   2.30000000E-02   3.93783618E-14
   2.34999992E-02   2.89124566E-14
   2.40000002E-02   1.21791683E-14
   2.44999994E-02  -1.15759571E-14
   2.50000004E-02  -4.27640338E-14
   2.54999995E-02  -8.13190525E-14
   2.60000005E-02  -1.26568325E-13
   2.64999997E-02  -1.77119224E-13
   2.70000007E-02  -2.30775766E-13
   2.74999999E-02  -2.84499122E-13
   2.80000009E-02  -3.34425630E-13
   2.85000000E-02  -3.75954042E-13
   2.89999992E-02  -4.03910520E-13
   2.95000002E-02  -4.12795340E-13
   2.99999993E-02  -3.97109754E-13
   3.05000003E-02  -3.51754541E-13
   3.09999995E-02  -2.72484428E-13
   3.15000005E-02  -1.56394944E-13
   3.20000015E-02  -2.41262025E-15
   3.24999988E-02   1.88248492E-13
   3.29999998E-02   4.11702709E-13
   3.35000008E-02   6.61122903E-13
   3.40000018E-02   9.26624879E-13
   3.44999991E-02   1.19534124E-12
   3.50000001E-02   1.45171212E-12
   3.55000012E-02   1.67800832E-12
   3.59999985E-02   1.85509030E-12
   3.64999995E-02   1.96338605E-12
   3.70000005E-02   1.98405615E-12
   3.75000015E-02   1.90029633E-12
   3.79999988E-02   1.69870747E-12
   3.84999998E-02   1.37065283E-12
   3.90000008E-02   9.13509177E-13
   3.95000018E-02   3.31713145E-13
   3.99999991E-02  -3.62492317E-13
   4.05000001E-02  -1.14870331E-12
   4.10000011E-02  -1.99846259E-12
   4.14999984E-02  -2.87588399E-12
   4.19999994E-02  -3.73881438E-12
   4.25000004E-02  -4.54052377E-12
   4.30000015E-02  -5.23187700E-12
   4.34999987E-02  -5.76390194E-12
   4.39999998E-02  -6.09063451E-12
   4.45000008E-02  -6.17208845E-12
   4.50000018E-02  -5.97717665E-12
   4.54999991E-02  -5.48638999E-12
   4.60000001E-02  -4.69404376E-12
   4.65000011E-02  -3.60990426E-12
   4.69999984E-02  -2.26004133E-12
   4.74999994E-02  -6.86770953E-13
   4.80000004E-02   1.05237889E-12
   4.85000014E-02   2.88670433E-12
   4.89999987E-02   4.73531761E-12
   4.94999997E-02   6.51098533E-12
   5.00000007E-02   8.12463898E-12
   5.05000018E-02   9.49031999E-12
   5.09999990E-02   1.05302858E-11
   5.15000001E-02   1.11799623E-11
   5.20000011E-02   1.13924070E-11
   5.24999984E-02   1.11419806E-11
   5.29999994E-02   1.04269267E-11
   5.35000004E-02   9.27061899E-12
   5.40000014E-02   7.72131664E-12
   5.44999987E-02   5.85034408E-12
   5.49999997E-02   3.74871141E-12
   5.55000007E-02   1.52230041E-12
   5.60000017E-02  -7.14151069E-13
   5.64999990E-02  -2.84395381E-12
   5.70000000E-02  -4.75584589E-12
   5.75000010E-02  -6.35139554E-12
   5.79999983E-02  -7.55192783E-12
   5.84999993E-02  -8.30448557E-12
   5.90000004E-02  -8.58636773E-12
   5.95000014E-02  -8.40785688E-12
   5.99999987E-02  -7.81283978E-12
   6.04999997E-02  -6.87714902E-12
   6.10000007E-02  -5.70460866E-12
   6.15000017E-02  -4.42091199E-12
   6.19999990E-02  -3.16560515E-12
   6.25000000E-02  -2.08261967E-12
   6.30000010E-02  -1.30989956E-12
   6.35000020E-02  -9.68776925E-13
   6.40000030E-02  -1.15380199E-12
   6.44999966E-02  -1.92374935E-12
   6.49999976E-02  -3.29448578E-12
   6.54999986E-02  -5.23430214E-12
   6.59999996E-02  -7.66218339E-12
   6.65000007E-02  -1.04493289E-11
   6.70000017E-02  -1.34240206E-11
   6.75000027E-02  -1.63797500E-11
   6.80000037E-02  -1.90862534E-11
   6.84999973E-02  -2.13029403E-11
   6.89999983E-02  -2.27939542E-11
   6.94999993E-02  -2.33440160E-11
   7.00000003E-02  -2.27740569E-11
   7.05000013E-02  -2.09556140E-11
   7.10000023E-02  -1.78230035E-11
   7.15000033E-02  -1.33823543E-11
   7.19999969E-02  -7.71674651E-12
   7.24999979E-02  -9.86916386E-13
   7.29999989E-02   6.57276013E-12
   7.34999999E-02   1.46630225E-11
   7.40000010E-02   2.29329056E-11
   7.45000020E-02   3.09967434E-11
   7.50000030E-02   3.84541808E-11
   7.54999965E-02   4.49120498E-11
   7.59999976E-02   5.00068841E-11
   7.64999986E-02   5.34267214E-11
   7.69999996E-02   5.49308515E-11
   7.75000006E-02   5.43661852E-11
   7.80000016E-02   5.16791575E-11
   7.85000026E-02   4.69222820E-11
   7.90000036E-02   4.02547475E-11
   7.94999972E-02   3.19368108E-11
   7.99999982E-02   2.23181664E-11
   8.04999992E-02   1.18207544E-11
   8.10000002E-02   9.16928751E-13
   8.15000013E-02  -9.89587665E-12
   8.20000023E-02  -2.01225148E-11
   8.25000033E-02  -2.92979668E-11
   8.29999968E-02  -3.70139509E-11
   8.34999979E-02  -4.29427188E-11
   8.39999989E-02  -4.68565291E-11
   8.44999999E-02  -4.86415214E-11
   8.50000009E-02  -4.83050891E-11
   8.55000019E-02  -4.59762124E-11
   8.60000029E-02  -4.18985679E-11
   8.64999965E-02  -3.64167758E-11
   8.69999975E-02  -2.99565130E-11
   8.74999985E-02  -2.29996196E-11
   8.79999995E-02  -1.60556794E-11
   8.85000005E-02  -9.63170342E-12
   8.90000015E-02  -4.20179386E-12
   8.95000026E-02  -1.78581759E-13
   9.00000036E-02   2.11180531E-12
   9.04999971E-02   2.44972467E-12
   9.09999982E-02   7.35740787E-13
   9.14999992E-02  -3.00274215E-12
   9.20000002E-02  -8.61232440E-12
   9.25000012E-02  -1.58218421E-11
   9.30000022E-02  -2.42574485E-11
   9.35000032E-02  -3.34635375E-11
   9.39999968E-02  -4.29282061E-11
   9.44999978E-02  -5.21115963E-11
   9.49999988E-02  -6.04753400E-11
   9.54999998E-02  -6.75112258E-11
   9.60000008E-02  -7.27673893E-11
   9.65000018E-02  -7.58703517E-11
   9.70000029E-02  -7.65415717E-11
   9.74999964E-02  -7.46077575E-11
   9.79999974E-02  -7.00042802E-11
   9.84999985E-02  -6.27717045E-11
   9.89999995E-02  -5.30459981E-11
   9.95000005E-02  -4.10431029E-11
  0.100000001      -2.70393100E-11
  0.100500003      -1.13487969E-11
  0.101000004       5.69988371E-12
  0.101499997       2.37866931E-11
  0.101999998       4.26207333E-11
  0.102499999       6.19570784E-11
  0.103000000       8.16088239E-11
  0.103500001       1.01453471E-10
  0.104000002       1.21433419E-10
  0.104500003       1.41550688E-10
  0.104999997       1.61856653E-10
  0.105499998       1.82437523E-10
  0.105999999       2.03397396E-10
  0.106500000       2.24840105E-10
  0.107000001       2.46851789E-10
  0.107500002       2.69485850E-10
  0.108000003       2.92751962E-10
  0.108499996       3.16610266E-10
  0.108999997       3.40971557E-10
  0.109499998       3.65704161E-10
  0.109999999       3.90647209E-10
  0.110500000       4.15629531E-10
  0.111000001       4.40493281E-10
  0.111500002       4.65120470E-10
  0.112000003       4.89460472E-10
  0.112499997       5.13556531E-10
  0.112999998       5.37568878E-10
  0.113499999       5.61792501E-10
  0.114000000       5.86667270E-10
  0.114500001       6.12779993E-10
  0.115000002       6.40855924E-10
  0.115500003       6.71741440E-10
  0.115999997       7.06376457E-10
  0.116499998       7.45759232E-10
  0.116999999       7.90904175E-10
  0.117500000       8.42795944E-10
  0.118000001       9.02342312E-10
  0.118500002       9.70328595E-10
  0.119000003       1.04737741E-09
  0.119499996       1.13391674E-09
  0.119999997       1.23015820E-09
  0.120499998       1.33608880E-09
  0.120999999       1.45147738E-09
  0.121500000       1.57589597E-09
  0.122000001       1.70875547E-09
  0.122500002       1.84935700E-09
  0.123000003       1.99695149E-09
  0.123499997       2.15081086E-09
  0.123999998       2.31030151E-09
  0.124499999       2.47496157E-09
  0.125000000       2.64456967E-09
  0.125499994       2.81921064E-09
  0.126000002       2.99932479E-09
  0.126499996       3.18574300E-09
  0.127000004       3.37970385E-09
  0.127499998       3.58284757E-09
  0.128000006       3.79719145E-09
  0.128500000       4.02508382E-09
  0.128999993       4.26913882E-09
  0.129500002       4.53215376E-09
  0.129999995       4.81702056E-09
  0.130500004       5.12662357E-09
  0.130999997       5.46374146E-09
  0.131500006       5.83095128E-09
  0.131999999       6.23054364E-09
  0.132499993       6.66445654E-09
  0.133000001       7.13422788E-09
  0.133499995       7.64097319E-09
  0.134000003       8.18539281E-09
  0.134499997       8.76780604E-09
  0.135000005       9.38821110E-09
  0.135499999       1.00463780E-08
  0.136000007       1.07419611E-08
  0.136500001       1.14746239E-08
  0.136999995       1.22441861E-08
  0.137500003       1.30507649E-08
  0.137999997       1.38949243E-08
  0.138500005       1.47778048E-08
  0.138999999       1.57012412E-08
  0.139500007       1.66678618E-08
  0.140000001       1.76811437E-08
  0.140499994       1.87454532E-08
  0.141000003       1.98660413E-08
  0.141499996       2.10490061E-08
  0.142000005       2.23012186E-08
  0.142499998       2.36302267E-08
  0.143000007       2.50441197E-08
  0.143500000       2.65513975E-08
  0.143999994       2.81608017E-08
  0.144500002       2.98811571E-08
  0.144999996       3.17212319E-08
  0.145500004       3.36895845E-08
  0.145999998       3.57944643E-08
  0.146500006       3.80437157E-08
  0.147000000       4.04447569E-08
  0.147499993       4.30045368E-08
  0.148000002       4.57296032E-08
  0.148499995       4.86261520E-08
  0.149000004       5.17001730E-08
  0.149499997       5.49575780E-08
  0.150000006       5.84044031E-08
  0.150500000       6.20469862E-08
  0.150999993       6.58922090E-08
  0.151500002       6.99476814E-08
  0.151999995       7.42219939E-08
  0.152500004       7.87248808E-08
  0.152999997       8.34673770E-08
  0.153500006       8.84620164E-08
  0.153999999       9.37228748E-08
  0.154499993       9.92656197E-08
  0.155000001       1.05107603E-07
  0.155499995       1.11267759E-07
  0.156000003       1.17766589E-07
  0.156499997       1.24626013E-07
  0.157000005       1.31869328E-07
  0.157499999       1.39521006E-07
  0.158000007       1.47606542E-07
  0.158500001       1.56152410E-07
  0.158999994       1.65185767E-07
  0.159500003       1.74734538E-07
  0.159999996       1.84827172E-07
  0.160500005       1.95492717E-07
  0.160999998       2.06760745E-07
  0.161500007       2.18661455E-07
  0.162000000       2.31225798E-07
  0.162499994       2.44485420E-07
  0.163000003       2.58473193E-07
  0.163499996       2.73223037E-07
  0.164000005       2.88770451E-07
  0.164499998       3.05152639E-07
  0.165000007       3.22408766E-07
  0.165500000       3.40580300E-07
  0.165999994       3.59711152E-07
  0.166500002       3.79848018E-07
  0.166999996       4.01040467E-07
  0.167500004       4.23341220E-07
  0.167999998       4.46806268E-07
  0.168500006       4.71494729E-07
  0.169000000       4.97469387E-07
  0.169499993       5.24796064E-07
  0.170000002       5.53544339E-07
  0.170499995       5.83786971E-07
  0.171000004       6.15599959E-07
  0.171499997       6.49062883E-07
  0.172000006       6.84258339E-07
  0.172499999       7.21272272E-07
  0.172999993       7.60193984E-07
  0.173500001       8.01115846E-07
  0.173999995       8.44133751E-07
  0.174500003       8.89347177E-07
  0.174999997       9.36859237E-07
  0.175500005       9.86776854E-07
  0.175999999       1.03921116E-06
  0.176499993       1.09427788E-06
  0.177000001       1.15209718E-06
  0.177499995       1.21279470E-06
  0.178000003       1.27650117E-06
  0.178499997       1.34335357E-06
  0.179000005       1.41349472E-06
  0.179499999       1.48707431E-06
  0.180000007       1.56424858E-06
  0.180500001       1.64518121E-06
  0.180999994       1.73004366E-06
  0.181500003       1.81901430E-06
  0.181999996       1.91227991E-06
  0.182500005       2.01003559E-06
  0.182999998       2.11248471E-06
  0.183500007       2.21983896E-06
  0.184000000       2.33231935E-06
  0.184499994       2.45015531E-06
  0.185000002       2.57358511E-06
  0.185499996       2.70285636E-06
  0.186000004       2.83822624E-06
  0.186499998       2.97996166E-06
  0.187000006       3.12833936E-06
  0.187500000       3.28364649E-06
  0.187999994       3.44618070E-06
  0.188500002       3.61625121E-06
  0.188999996       3.79417816E-06
  0.189500004       3.98029306E-06
  0.189999998       4.17494221E-06
  0.190500006       4.37848257E-06
  0.191000000       4.59128569E-06
  0.191499993       4.81373627E-06
  0.192000002       5.04623586E-06
  0.192499995       5.28919963E-06
  0.193000004       5.54305780E-06
  0.193499997       5.80825917E-06
  0.194000006       6.08526761E-06
  0.194499999       6.37456469E-06
  0.194999993       6.67665108E-06
  0.195500001       6.99204384E-06
  0.195999995       7.32128092E-06
  0.196500003       7.66491758E-06
  0.196999997       8.02353225E-06
  0.197500005       8.39771928E-06
  0.197999999       8.78809624E-06
  0.198500007       9.19530157E-06
  0.199000001       9.61999740E-06
  0.199499995       1.00628640E-05
  0.200000003       1.05246081E-05
  0.200499997       1.10059591E-05
  0.201000005       1.15076700E-05
  0.201499999       1.20305194E-05
  0.202000007       1.25753113E-05
  0.202500001       1.31428760E-05
  0.202999994       1.37340712E-05
  0.203500003       1.43497818E-05
  0.203999996       1.49909229E-05
  0.204500005       1.56584356E-05
  0.204999998       1.63532932E-05
  0.205500007       1.70764997E-05
  0.206000000       1.78290938E-05
  0.206499994       1.86121415E-05
  0.207000002       1.94267468E-05
  0.207499996       2.02740430E-05
  0.208000004       2.11552015E-05
  0.208499998       2.20714319E-05
  0.209000006       2.30239748E-05
  0.209500000       2.40141107E-05
  0.209999993       2.50431585E-05
  0.210500002       2.61124769E-05
  0.210999995       2.72234611E-05
  0.211500004       2.83775462E-05
  0.211999997       2.95762111E-05
  0.212500006       3.08209746E-05
  0.213000000       3.21134030E-05
  0.213499993       3.34550969E-05
  0.214000002       3.48477079E-05
  0.214499995       3.62929313E-05
  0.215000004       3.77925062E-05
  0.215499997       3.93482187E-05
  0.216000006       4.09619097E-05
  0.216499999       4.26354563E-05
  0.216999993       4.43707977E-05
  0.217500001       4.61699092E-05
  0.217999995       4.80348244E-05
  0.218500003       4.99676316E-05
  0.218999997       5.19704663E-05
  0.219500005       5.40455112E-05
  0.219999999       5.61950146E-05
  0.220500007       5.84212721E-05
  0.221000001       6.07266338E-05
  0.221499994       6.31135117E-05
  0.222000003       6.55843469E-05
  0.222499996       6.81416786E-05
  0.223000005       7.07880827E-05
  0.223499998       7.35262001E-05
  0.224000007       7.63587013E-05
  0.224500000       7.92883584E-05
  0.224999994       8.23179726E-05
  0.225500003       8.54504106E-05
  0.225999996       8.86886046E-05
  0.226500005       9.20355378E-05
  0.226999998       9.54942589E-05
  0.227500007       9.90678891E-05
  0.228000000       1.02759579E-04
  0.228499994       1.06572574E-04
  0.229000002       1.10510147E-04
  0.229499996       1.14575669E-04
  0.230000004       1.18772536E-04
  0.230499998       1.23104212E-04
  0.231000006       1.27574240E-04
  0.231500000       1.32186222E-04
  0.231999993       1.36943781E-04
  0.232500002       1.41850658E-04
  0.232999995       1.46910606E-04
  0.233500004       1.52127453E-04
  0.233999997       1.57505085E-04
  0.234500006       1.63047473E-04
  0.234999999       1.68758590E-04
  0.235499993       1.74642526E-04
  0.236000001       1.80703370E-04
  0.236499995       1.86945297E-04
  0.237000003       1.93372543E-04
  0.237499997       1.99989357E-04
  0.238000005       2.06800076E-04
  0.238499999       2.13809049E-04
  0.238999993       2.21020673E-04
  0.239500001       2.28439414E-04
  0.239999995       2.36069784E-04
  0.240500003       2.43916322E-04
  0.240999997       2.51983554E-04
  0.241500005       2.60276109E-04
  0.241999999       2.68798642E-04
  0.242500007       2.77555780E-04
  0.243000001       2.86552269E-04
  0.243499994       2.95792765E-04
  0.244000003       3.05282039E-04
  0.244499996       3.15024896E-04
  0.245000005       3.25026078E-04
  0.245499998       3.35290330E-04
  0.246000007       3.45822540E-04
  0.246500000       3.56627483E-04
  0.246999994       3.67709988E-04
  0.247500002       3.79074831E-04
  0.247999996       3.90726869E-04
  0.248500004       4.02670936E-04
  0.248999998       4.14911774E-04
  0.249500006       4.27454186E-04
  0.250000000       4.40302974E-04
  0.250499994       4.53462766E-04
  0.250999987       4.66938334E-04
  0.251500010       4.80734307E-04
  0.252000004       4.94855223E-04
  0.252499998       5.09305682E-04
  0.252999991       5.24090137E-04
  0.253500015       5.39213070E-04
  0.254000008       5.54678729E-04
  0.254500002       5.70491480E-04
  0.254999995       5.86655398E-04
  0.255499989       6.03174558E-04
  0.256000012       6.20053092E-04
  0.256500006       6.37294725E-04
  0.256999999       6.54903299E-04
  0.257499993       6.72882423E-04
  0.257999986       6.91235648E-04
  0.258500010       7.09966349E-04
  0.259000003       7.29077845E-04
  0.259499997       7.48573279E-04
  0.259999990       7.68455444E-04
  0.260500014       7.88727251E-04
  0.261000007       8.09391378E-04
  0.261500001       8.30450153E-04
  0.261999995       8.51905905E-04
  0.262499988       8.73760611E-04
  0.263000011       8.96016310E-04
  0.263500005       9.18674399E-04
  0.263999999       9.41736449E-04
  0.264499992       9.65203508E-04
  0.264999986       9.89076565E-04
  0.265500009       1.01335603E-03
  0.266000003       1.03804248E-03
  0.266499996       1.06313569E-03
  0.266999990       1.08863565E-03
  0.267500013       1.11454166E-03
  0.268000007       1.14085292E-03
  0.268500000       1.16756826E-03
  0.268999994       1.19468616E-03
  0.269499987       1.22220465E-03
  0.270000011       1.25012163E-03
  0.270500004       1.27843430E-03
  0.270999998       1.30713999E-03
  0.271499991       1.33623520E-03
  0.272000015       1.36571622E-03
  0.272500008       1.39557896E-03
  0.273000002       1.42581889E-03
  0.273499995       1.45643100E-03
  0.273999989       1.48741016E-03
  0.274500012       1.51875056E-03
  0.275000006       1.55044580E-03
  0.275500000       1.58248900E-03
  0.275999993       1.61487318E-03
  0.276499987       1.64759054E-03
  0.277000010       1.68063282E-03
  0.277500004       1.71399140E-03
  0.277999997       1.74765685E-03
  0.278499991       1.78161950E-03
  0.279000014       1.81586901E-03
  0.279500008       1.85039442E-03
  0.280000001       1.88518432E-03
  0.280499995       1.92022661E-03
  0.280999988       1.95550872E-03
  0.281500012       1.99101749E-03
  0.282000005       2.02673953E-03
  0.282499999       2.06265971E-03
  0.282999992       2.09876336E-03
  0.283499986       2.13503512E-03
  0.284000009       2.17145844E-03
  0.284500003       2.20801705E-03
  0.284999996       2.24469346E-03
  0.285499990       2.28146906E-03
  0.286000013       2.31832545E-03
  0.286500007       2.35524378E-03
  0.287000000       2.39220378E-03
  0.287499994       2.42918497E-03
  0.287999988       2.46616593E-03
  0.288500011       2.50312523E-03
  0.289000005       2.54004030E-03
  0.289499998       2.57688784E-03
  0.289999992       2.61364412E-03
  0.290499985       2.65028491E-03
  0.291000009       2.68678530E-03
  0.291500002       2.72311922E-03
  0.291999996       2.75926082E-03
  0.292499989       2.79518240E-03
  0.293000013       2.83085695E-03
  0.293500006       2.86625628E-03
  0.294000000       2.90135131E-03
  0.294499993       2.93611269E-03
  0.294999987       2.97051016E-03
  0.295500010       3.00451322E-03
  0.296000004       3.03809042E-03
  0.296499997       3.07121011E-03
  0.296999991       3.10383970E-03
  0.297500014       3.13594658E-03
  0.298000008       3.16749676E-03
  0.298500001       3.19845672E-03
  0.298999995       3.22879199E-03
  0.299499989       3.25846719E-03
  0.300000012       3.28744715E-03
  0.300500005       3.31569556E-03
  0.300999999       3.34317680E-03
  0.301499993       3.36985337E-03
  0.301999986       3.39568872E-03
  0.302500010       3.42064491E-03
  0.303000003       3.44468397E-03
  0.303499997       3.46776797E-03
  0.303999990       3.48985824E-03
  0.304500014       3.51091614E-03
  0.305000007       3.53090209E-03
  0.305500001       3.54977697E-03
  0.305999994       3.56750144E-03
  0.306499988       3.58403567E-03
  0.307000011       3.59934010E-03
  0.307500005       3.61337443E-03
  0.307999998       3.62609909E-03
  0.308499992       3.63747380E-03
  0.308999985       3.64745874E-03
  0.309500009       3.65601340E-03
  0.310000002       3.66309821E-03
  0.310499996       3.66867334E-03
  0.310999990       3.67269921E-03
  0.311500013       3.67513625E-03
  0.312000006       3.67594487E-03
  0.312500000       3.67508619E-03
  0.312999994       3.67252156E-03
  0.313499987       3.66821233E-03
  0.314000010       3.66212032E-03
  0.314500004       3.65420803E-03
  0.314999998       3.64443846E-03
  0.315499991       3.63277458E-03
  0.316000015       3.61918029E-03
  0.316500008       3.60362022E-03
  0.317000002       3.58605944E-03
  0.317499995       3.56646371E-03
  0.317999989       3.54479975E-03
  0.318500012       3.52103449E-03
  0.319000006       3.49513604E-03
  0.319499999       3.46707366E-03
  0.319999993       3.43681755E-03
  0.320499986       3.40433838E-03
  0.321000010       3.36960796E-03
  0.321500003       3.33260000E-03
  0.321999997       3.29328794E-03
  0.322499990       3.25164804E-03
  0.323000014       3.20765609E-03
  0.323500007       3.16129066E-03
  0.324000001       3.11253080E-03
  0.324499995       3.06135719E-03
  0.324999988       3.00775189E-03
  0.325500011       2.95169838E-03
  0.326000005       2.89318175E-03
  0.326499999       2.83218827E-03
  0.326999992       2.76870606E-03
  0.327499986       2.70272489E-03
  0.328000009       2.63423612E-03
  0.328500003       2.56323302E-03
  0.328999996       2.48971023E-03
  0.329499990       2.41366494E-03
  0.330000013       2.33509508E-03
  0.330500007       2.25400110E-03
  0.331000000       2.17038579E-03
  0.331499994       2.08425289E-03
  0.331999987       1.99560914E-03
  0.332500011       1.90446270E-03
  0.333000004       1.81082415E-03
  0.333499998       1.71470607E-03
  0.333999991       1.61612313E-03
  0.334500015       1.51509244E-03
  0.335000008       1.41163310E-03
  0.335500002       1.30576652E-03
  0.335999995       1.19751622E-03
  0.336499989       1.08690839E-03
  0.337000012       9.73971153E-04
  0.337500006       8.58734886E-04
  0.338000000       7.41232594E-04
  0.338499993       6.21499377E-04
  0.338999987       4.99572663E-04
  0.339500010       3.75492265E-04
  0.340000004       2.49300385E-04
  0.340499997       1.21041339E-04
  0.340999991      -9.23790776E-06
  0.341500014      -1.41488257E-04
  0.342000008      -2.75658182E-04
  0.342500001      -4.11693793E-04
  0.342999995      -5.49538876E-04
  0.343499988      -6.89134933E-04
  0.344000012      -8.30420933E-04
  0.344500005      -9.73333546E-04
  0.344999999      -1.11780735E-03
  0.345499992      -1.26377447E-03
  0.345999986      -1.41116441E-03
  0.346500009      -1.55990513E-03
  0.347000003      -1.70992187E-03
  0.347499996      -1.86113757E-03
  0.347999990      -2.01347354E-03
  0.348500013      -2.16684793E-03
  0.349000007      -2.32117856E-03
  0.349500000      -2.47637997E-03
  0.349999994      -2.63236463E-03
  0.350499988      -2.78904359E-03
  0.351000011      -2.94632581E-03
  0.351500005      -3.10411863E-03
  0.351999998      -3.26232775E-03
  0.352499992      -3.42085678E-03
  0.352999985      -3.57960793E-03
  0.353500009      -3.73848248E-03
  0.354000002      -3.89737915E-03
  0.354499996      -4.05619619E-03
  0.354999989      -4.21482930E-03
  0.355500013      -4.37317416E-03
  0.356000006      -4.53112507E-03
  0.356500000      -4.68857400E-03
  0.356999993      -4.84541385E-03
  0.357499987      -5.00153424E-03
  0.358000010      -5.15682530E-03
  0.358500004      -5.31117665E-03
  0.358999997      -5.46447607E-03
  0.359499991      -5.61661134E-03
  0.360000014      -5.76747023E-03
  0.360500008      -5.91693912E-03
  0.361000001      -6.06490532E-03
  0.361499995      -6.21125428E-03
  0.361999989      -6.35587331E-03
  0.362500012      -6.49864739E-03
  0.363000005      -6.63946383E-03
  0.363499999      -6.77820947E-03
  0.363999993      -6.91477070E-03
  0.364499986      -7.04903575E-03
  0.365000010      -7.18089286E-03
  0.365500003      -7.31022982E-03
  0.365999997      -7.43693672E-03
  0.366499990      -7.56090414E-03
  0.367000014      -7.68202357E-03
  0.367500007      -7.80018792E-03
  0.368000001      -7.91529100E-03
  0.368499994      -8.02722666E-03
  0.368999988      -8.13589338E-03
  0.369500011      -8.24118964E-03
  0.370000005      -8.34301393E-03
  0.370499998      -8.44126940E-03
  0.370999992      -8.53585824E-03
  0.371499985      -8.62668827E-03
  0.372000009      -8.71366728E-03
  0.372500002      -8.79670493E-03
  0.372999996      -8.87571275E-03
  0.373499990      -8.95060878E-03
  0.374000013      -9.02130827E-03
  0.374500006      -9.08773299E-03
  0.375000000      -9.14980564E-03
  0.375499994      -9.20745172E-03
  0.375999987      -9.26060230E-03
  0.376500010      -9.30918846E-03
  0.377000004      -9.35314689E-03
  0.377499998      -9.39241517E-03
  0.377999991      -9.42693651E-03
  0.378500015      -9.45665780E-03
  0.379000008      -9.48152598E-03
  0.379500002      -9.50149447E-03
  0.379999995      -9.51652229E-03
  0.380499989      -9.52656753E-03
  0.381000012      -9.53159761E-03
  0.381500006      -9.53157712E-03
  0.381999999      -9.52647999E-03
  0.382499993      -9.51628387E-03
  0.382999986      -9.50096827E-03
  0.383500010      -9.48051829E-03
  0.384000003      -9.45492368E-03
  0.384499997      -9.42417886E-03
  0.384999990      -9.38827917E-03
  0.385500014      -9.34722926E-03
  0.386000007      -9.30103380E-03
  0.386500001      -9.24970396E-03
  0.386999995      -9.19325743E-03
  0.387499988      -9.13171191E-03
  0.388000011      -9.06509254E-03
  0.388500005      -8.99342820E-03
  0.388999999      -8.91675148E-03
  0.389499992      -8.83510243E-03
  0.389999986      -8.74852110E-03
  0.390500009      -8.65705498E-03
  0.391000003      -8.56075622E-03
  0.391499996      -8.45967978E-03
  0.391999990      -8.35388713E-03
  0.392500013      -8.24344344E-03
  0.393000007      -8.12841766E-03
  0.393500000      -8.00888333E-03
  0.393999994      -7.88491778E-03
  0.394499987      -7.75660342E-03
  0.395000011      -7.62402778E-03
  0.395500004      -7.48728029E-03
  0.395999998      -7.34645640E-03
  0.396499991      -7.20165437E-03
  0.397000015      -7.05297664E-03
  0.397500008      -6.90053031E-03
  0.398000002      -6.74442435E-03
  0.398499995      -6.58477284E-03
  0.398999989      -6.42169360E-03
  0.399500012      -6.25530677E-03
  0.400000006      -6.08573621E-03
  0.400500000      -5.91310952E-03
  0.400999993      -5.73755708E-03
  0.401499987      -5.55921113E-03
  0.402000010      -5.37820905E-03
  0.402500004      -5.19469008E-03
  0.402999997      -5.00879576E-03
  0.403499991      -4.82067000E-03
  0.404000014      -4.63046087E-03
  0.404500008      -4.43831598E-03
  0.405000001      -4.24438715E-03
  0.405499995      -4.04882757E-03
  0.405999988      -3.85179347E-03
  0.406500012      -3.65344086E-03
  0.407000005      -3.45392805E-03
  0.407499999      -3.25341523E-03
  0.407999992      -3.05206305E-03
  0.408499986      -2.85003427E-03
  0.409000009      -2.64749117E-03
  0.409500003      -2.44459813E-03
  0.409999996      -2.24151858E-03
  0.410499990      -2.03841692E-03
  0.411000013      -1.83545786E-03
  0.411500007      -1.63280626E-03
  0.412000000      -1.43062638E-03
  0.412499994      -1.22908223E-03
  0.412999988      -1.02833740E-03
  0.413500011      -8.28554796E-04
  0.414000005      -6.29896473E-04
  0.414499998      -4.32523579E-04
  0.414999992      -2.36596141E-04
  0.415499985      -4.22730081E-05
  0.416000009       1.50288586E-04
  0.416500002       3.40932806E-04
  0.416999996       5.29505603E-04
  0.417499989       7.15854694E-04
  0.418000013       8.99829960E-04
  0.418500006       1.08128344E-03
  0.419000000       1.26006966E-03
  0.419499993       1.43604528E-03
  0.419999987       1.60907023E-03
  0.420500010       1.77900714E-03
  0.421000004       1.94572110E-03
  0.421499997       2.10908079E-03
  0.421999991       2.26895884E-03
  0.422500014       2.42523081E-03
  0.423000008       2.57777562E-03
  0.423500001       2.72647617E-03
  0.423999995       2.87121977E-03
  0.424499989       3.01189721E-03
  0.425000012       3.14840372E-03
  0.425500005       3.28063895E-03
  0.425999999       3.40850605E-03
  0.426499993       3.53191351E-03
  0.426999986       3.65077425E-03
  0.427500010       3.76500515E-03
  0.428000003       3.87452776E-03