   0.00000000       0.00000000    
   5.00000024E-04   4.09978637E-13
   1.00000005E-03   1.21479508E-12
   1.50000001E-03   2.35820998E-12
   2.00000009E-03   3.74930035E-12
   2.49999994E-03   5.27191355E-12
   3.00000003E-03   6.79556801E-12
   3.50000011E-03   8.18582094E-12
   4.00000019E-03   9.31209797E-12
   4.49999981E-03   1.00513087E-11
   4.99999989E-03   1.02860880E-11
   5.49999997E-03   9.89737198E-12
   6.00000005E-03   8.75190892E-12
   6.50000013E-03   6.68633378E-12
   7.00000022E-03   3.49030375E-12
   7.49999983E-03  -1.10810872E-12
   8.00000038E-03  -7.45117943E-12
   8.50000046E-03  -1.59508934E-11
   8.99999961E-03  -2.70758051E-11
   9.49999969E-03  -4.13231879E-11
   9.99999978E-03  -5.91755950E-11
   1.04999999E-02  -8.10425269E-11
   1.09999999E-02  -1.07189736E-10
   1.15000000E-02  -1.37660452E-10
   1.20000001E-02  -1.72194634E-10
   1.25000002E-02  -2.10153353E-10
   1.30000003E-02  -2.50456544E-10
   1.35000004E-02  -2.91542374E-10
   1.40000004E-02  -3.31355859E-10
   1.44999996E-02  -3.67373243E-10
   1.49999997E-02  -3.96666339E-10
   1.54999997E-02  -4.16008367E-10
   1.60000008E-02  -4.22020363E-10
   1.64999999E-02  -4.11352424E-10
   1.70000009E-02  -3.80892373E-10
   1.75000001E-02  -3.27989857E-10
   1.79999992E-02  -2.50683085E-10
   1.85000002E-02  -1.47911280E-10
   1.89999994E-02  -1.96979343E-11
   1.95000004E-02   1.32711259E-10
   1.99999996E-02   3.06770137E-10
   2.05000006E-02   4.98623531E-10
   2.09999997E-02   7.03176628E-10
   2.15000007E-02   9.14244680E-10
   2.19999999E-02   1.12477905E-09
   2.25000009E-02   1.32716238E-09
   2.30000000E-02   1.51355906E-09
   2.34999992E-02   1.67630332E-09
   2.40000002E-02   1.80830151E-09
   2.44999994E-02   1.90342742E-09
   2.50000004E-02   1.95688243E-09
   2.54999995E-02   1.96550021E-09
   2.60000005E-02   1.92797223E-09
   2.64999997E-02   1.84497617E-09
   2.70000007E-02   1.71920023E-09
   2.74999999E-02   1.55525315E-09
   2.80000009E-02   1.35946510E-09
   2.85000000E-02   1.13958976E-09
   2.89999992E-02   9.04421926E-10
   2.95000002E-02   6.63353594E-10
   2.99999993E-02   4.25897512E-10
   3.05000003E-02   2.01206524E-10
   3.09999995E-02  -2.38065210E-12
   3.15000005E-02  -1.77736451E-10
   3.20000015E-02  -3.19258203E-10
   3.24999988E-02  -4.23078322E-10
   3.29999998E-02  -4.87156038E-10
   3.35000008E-02  -5.11244880E-10
   3.40000018E-02  -4.96738262E-10
   3.44999991E-02  -4.46404219E-10
   3.50000001E-02  -3.64028585E-10
   3.55000012E-02  -2.53992410E-10
   3.59999985E-02  -1.20814678E-10
   3.64999995E-02   3.13059960E-11
   3.70000005E-02   1.98916134E-10
   3.75000015E-02   3.79664938E-10
   3.79999988E-02   5.72570769E-10
   3.84999998E-02   7.78168141E-10
   3.90000008E-02   9.98529037E-10
   3.95000018E-02   1.23714872E-09
   3.99999991E-02   1.49870827E-09
   4.05000001E-02   1.78872173E-09
   4.10000011E-02   2.11310103E-09
   4.14999984E-02   2.47766452E-09
   4.19999994E-02   2.88762880E-09
   4.25000004E-02   3.34711969E-09
   4.30000015E-02   3.85874932E-09
   4.34999987E-02   4.42328574E-09
   4.39999998E-02   5.03944753E-09
   4.45000008E-02   5.70385339E-09
   4.50000018E-02   6.41112630E-09
   4.54999991E-02   7.15415904E-09
   4.60000001E-02   7.92453037E-09
   4.65000011E-02   8.71304806E-09
   4.69999984E-02   9.51037649E-09
   4.74999994E-02   1.03077449E-08
   4.80000004E-02   1.10976268E-08
   4.85000014E-02   1.18744197E-08
   4.89999987E-02   1.26350086E-08
   4.94999997E-02   1.33792204E-08
   5.00000007E-02   1.41101149E-08
   5.05000018E-02   1.48340806E-08
   5.09999990E-02   1.55607385E-08
   5.15000001E-02   1.63026517E-08
   5.20000011E-02   1.70748393E-08
   5.24999984E-02   1.78941431E-08
   5.29999994E-02   1.87784597E-08
   5.35000004E-02   1.97459293E-08
   5.40000014E-02   2.08140740E-08
   5.44999987E-02   2.19989840E-08
   5.49999997E-02   2.33145983E-08
   5.55000007E-02   2.47721221E-08
   5.60000017E-02   2.63796185E-08
   5.64999990E-02   2.81418320E-08
   5.70000000E-02   3.00601997E-08
   5.75000010E-02   3.21331299E-08
   5.79999983E-02   3.43564857E-08
   5.84999993E-02   3.67242521E-08
   5.90000004E-02   3.92293451E-08
   5.95000014E-02   4.18645421E-08
   5.99999987E-02   4.46234374E-08
   6.04999997E-02   4.75013771E-08
   6.10000007E-02   5.04963644E-08
   6.15000017E-02   5.36097637E-08
   6.19999990E-02   5.68468757E-08
   6.25000000E-02   6.02172889E-08
   6.30000010E-02   6.37350155E-08
   6.35000020E-02   6.74183980E-08
   6.40000030E-02   7.12897048E-08
   6.44999966E-02   7.53746718E-08
   6.49999976E-02   7.97017563E-08
   6.54999986E-02   8.43013552E-08
   6.59999996E-02   8.92048604E-08
   6.65000007E-02   9.44438767E-08
   6.70000017E-02   1.00049348E-07
   6.75000027E-02   1.06050848E-07
   6.80000037E-02   1.12476130E-07
   6.84999973E-02   1.19350631E-07
   6.89999983E-02   1.26697486E-07
   6.94999993E-02   1.34537572E-07
   7.00000003E-02   1.42889846E-07
   7.05000013E-02   1.51771800E-07
   7.10000023E-02   1.61200305E-07
   7.15000033E-02   1.71192298E-07
   7.19999969E-02   1.81765657E-07
   7.24999979E-02   1.92940121E-07
   7.29999989E-02   2.04738186E-07
   7.34999999E-02   2.17185729E-07
   7.40000010E-02   2.30312807E-07
   7.45000020E-02   2.44154023E-07
   7.50000030E-02   2.58748742E-07
   7.54999965E-02   2.74141172E-07
   7.59999976E-02   2.90380427E-07
   7.64999986E-02   3.07519883E-07
   7.69999996E-02   3.25617123E-07
   7.75000006E-02   3.44733110E-07
   7.80000016E-02   3.64931907E-07
   7.85000026E-02   3.86279766E-07
   7.90000036E-02   4.08844926E-07
   7.94999972E-02   4.32697021E-07
   7.99999982E-02   4.57906793E-07
   8.04999992E-02   4.84546035E-07
   8.10000002E-02   5.12687564E-07
   8.15000013E-02   5.42405473E-07
   8.20000023E-02   5.73775594E-07
   8.25000033E-02   6.06876085E-07
   8.29999968E-02   6.41788006E-07
   8.34999979E-02   6.78595939E-07
   8.39999989E-02   7.17389298E-07
   8.44999999E-02   7.58262843E-07
   8.50000009E-02   8.01317412E-07
   8.55000019E-02   8.46660726E-07
   8.60000029E-02   8.94407947E-07
   8.64999965E-02   9.44682085E-07
   8.69999975E-02   9.97614507E-07
   8.74999985E-02   1.05334516E-06
   8.79999995E-02   1.11202223E-06
   8.85000005E-02   1.17380250E-06
   8.90000015E-02   1.23885093E-06
   8.95000026E-02   1.30734054E-06
   9.00000036E-02   1.37945267E-06
   9.04999971E-02   1.45537615E-06
   9.09999982E-02   1.53530766E-06
   9.14999992E-02   1.61945150E-06
   9.20000002E-02   1.70802002E-06
   9.25000012E-02   1.80123379E-06
   9.30000022E-02   1.89932143E-06
   9.35000032E-02   2.00252111E-06
   9.39999968E-02   2.11108045E-06
   9.44999978E-02   2.22525773E-06
   9.49999988E-02   2.34532217E-06
   9.54999998E-02   2.47155481E-06
   9.60000008E-02   2.60425077E-06
   9.65000018E-02   2.74371746E-06
   9.70000029E-02   2.89027776E-06
   9.74999964E-02   3.04427022E-06
   9.79999974E-02   3.20604750E-06
   9.84999985E-02   3.37598090E-06
   9.89999995E-02   3.55445650E-06
   9.95000005E-02   3.74187925E-06
  0.100000001       3.93867140E-06
  0.100500003       4.14527312E-06
  0.101000004       4.36214395E-06
  0.101499997       4.58976137E-06
  0.101999998       4.82862470E-06
  0.102499999       5.07925142E-06
  0.103000000       5.34218088E-06
  0.103500001       5.61797697E-06
  0.104000002       5.90722357E-06
  0.104500003       6.21053096E-06
  0.104999997       6.52853669E-06
  0.105499998       6.86190424E-06
  0.105999999       7.21132619E-06
  0.106500000       7.57752605E-06
  0.107000001       7.96126005E-06
  0.107500002       8.36331583E-06
  0.108000003       8.78451738E-06
  0.108499996       9.22572599E-06
  0.108999997       9.68783570E-06
  0.109499998       1.01717842E-05
  0.109999999       1.06785446E-05
  0.110500000       1.12091302E-05
  0.111000001       1.17645959E-05
  0.111500002       1.23460395E-05
  0.112000003       1.29545961E-05
  0.112499997       1.35914488E-05
  0.112999998       1.42578228E-05
  0.113499999       1.49549924E-05
  0.114000000       1.56842707E-05
  0.114500001       1.64470275E-05
  0.115000002       1.72446798E-05
  0.115500003       1.80786938E-05
  0.115999997       1.89505954E-05
  0.116499998       1.98619673E-05
  0.116999999       2.08144538E-05
  0.117500000       2.18097593E-05
  0.118000001       2.28496556E-05
  0.118500002       2.39359888E-05
  0.119000003       2.50706744E-05
  0.119499996       2.62556950E-05
  0.119999997       2.74931263E-05
  0.120499998       2.87851162E-05
  0.120999999       3.01338914E-05
  0.121500000       3.15417783E-05
  0.122000001       3.30111761E-05
  0.122500002       3.45445842E-05
  0.123000003       3.61445855E-05
  0.123499997       3.78138575E-05
  0.123999998       3.95551724E-05
  0.124499999       4.13714042E-05
  0.125000000       4.32655179E-05
  0.125499994       4.52405802E-05
  0.126000002       4.72997672E-05
  0.126499996       4.94463638E-05
  0.127000004       5.16837608E-05
  0.127499998       5.40154579E-05
  0.128000006       5.64450747E-05
  0.128500000       5.89763622E-05
  0.128999993       6.16131874E-05
  0.129500002       6.43595486E-05
  0.129999995       6.72195820E-05
  0.130500004       7.01975805E-05
  0.130999997       7.32979679E-05
  0.131500006       7.65253062E-05
  0.131999999       7.98843466E-05
  0.132499993       8.33799713E-05
  0.133000001       8.70172371E-05
  0.133499995       9.08013681E-05
  0.134000003       9.47377630E-05
  0.134499997       9.88320098E-05
  0.135000005       1.03089849E-04
  0.135499999       1.07517233E-04
  0.136000007       1.12120280E-04
  0.136500001       1.16905314E-04
  0.136999995       1.21878838E-04
  0.137500003       1.27047562E-04
  0.137999997       1.32418383E-04
  0.138500005       1.37998417E-04
  0.138999999       1.43794998E-04
  0.139500007       1.49815663E-04
  0.140000001       1.56068170E-04
  0.140499994       1.62560493E-04
  0.141000003       1.69300882E-04
  0.141499996       1.76297763E-04
  0.142000005       1.83559852E-04
  0.142499998       1.91096144E-04
  0.143000007       1.98915790E-04
  0.143500000       2.07028323E-04
  0.143999994       2.15443477E-04
  0.144500002       2.24171279E-04
  0.144999996       2.33222017E-04
  0.145500004       2.42606344E-04
  0.145999998       2.52335187E-04
  0.146500006       2.62419722E-04
  0.147000000       2.72871461E-04
  0.147499993       2.83702218E-04
  0.148000002       2.94924132E-04
  0.148499995       3.06549657E-04
  0.149000004       3.18591570E-04
  0.149499997       3.31063027E-04
  0.150000006       3.43977415E-04
  0.150500000       3.57348530E-04
  0.150999993       3.71190486E-04
  0.151500002       3.85517807E-04
  0.151999995       4.00345307E-04
  0.152500004       4.15688090E-04
  0.152999997       4.31561813E-04
  0.153500006       4.47982311E-04
  0.153999999       4.64965880E-04
  0.154499993       4.82529256E-04
  0.155000001       5.00689435E-04
  0.155499995       5.19463909E-04
  0.156000003       5.38870576E-04
  0.156499997       5.58927655E-04
  0.157000005       5.79653715E-04
  0.157499999       6.01068023E-04
  0.158000007       6.23189902E-04
  0.158500001       6.46039378E-04
  0.158999994       6.69636764E-04
  0.159500003       6.94002782E-04
  0.159999996       7.19158619E-04
  0.160500005       7.45125988E-04
  0.160999998       7.71926949E-04
  0.161500007       7.99583970E-04
  0.162000000       8.28120043E-04
  0.162499994       8.57558509E-04
  0.163000003       8.87923117E-04
  0.163499996       9.19238140E-04
  0.164000005       9.51528375E-04
  0.164499998       9.84818791E-04
  0.165000007       1.01913512E-03
  0.165500000       1.05450326E-03
  0.165999994       1.09094975E-03
  0.166500002       1.12850149E-03
  0.166999996       1.16718584E-03
  0.167500004       1.20703038E-03
  0.167999998       1.24806340E-03
  0.168500006       1.29031343E-03
  0.169000000       1.33380981E-03
  0.169499993       1.37858174E-03
  0.170000002       1.42465939E-03
  0.170499995       1.47207303E-03
  0.171000004       1.52085326E-03
  0.171499997       1.57103129E-03
  0.172000006       1.62263867E-03
  0.172499999       1.67570706E-03
  0.172999993       1.73026917E-03
  0.173500001       1.78635737E-03
  0.173999995       1.84400473E-03
  0.174500003       1.90324464E-03
  0.174999997       1.96411088E-03
  0.175500005       2.02663755E-03
  0.175999999       2.09085923E-03
  0.176499993       2.15680990E-03
  0.177000001       2.22452497E-03
  0.177499995       2.29403935E-03
  0.178000003       2.36538844E-03
  0.178499997       2.43860809E-03
  0.179000005       2.51373369E-03
  0.179499999       2.59080157E-03
  0.180000007       2.66984804E-03
  0.180500001       2.75090919E-03
  0.180999994       2.83402135E-03
  0.181500003       2.91922176E-03
  0.181999996       3.00654629E-03
  0.182500005       3.09603196E-03
  0.182999998       3.18771577E-03
  0.183500007       3.28163407E-03
  0.184000000       3.37782479E-03
  0.184499994       3.47632356E-03
  0.185000002       3.57716694E-03
  0.185499996       3.68039194E-03
  0.186000004       3.78603488E-03
  0.186499998       3.89413210E-03
  0.187000006       4.00471920E-03
  0.187500000       4.11783205E-03
  0.187999994       4.23350604E-03
  0.188500002       4.35177563E-03
  0.188999996       4.47267666E-03
  0.189500004       4.59624222E-03
  0.189999998       4.72250627E-03
  0.190500006       4.85150237E-03
  0.191000000       4.98326309E-03
  0.191499993       5.11782011E-03
  0.192000002       5.25520509E-03
  0.192499995       5.39544923E-03
  0.193000004       5.53858140E-03
  0.193499997       5.68463141E-03
  0.194000006       5.83362719E-03
  0.194499999       5.98559622E-03
  0.194999993       6.14056457E-03
  0.195500001       6.29855692E-03
  0.195999995       6.45959936E-03
  0.196500003       6.62371377E-03
  0.196999997       6.79092295E-03
  0.197500005       6.96124742E-03
  0.197999999       7.13470671E-03
  0.198500007       7.31131807E-03
  0.199000001       7.49109872E-03
  0.199499995       7.67406309E-03
  0.200000003       7.86022563E-03
  0.200499997       8.04959796E-03
  0.201000005       8.24218988E-03
  0.201499999       8.43800977E-03
  0.202000007       8.63706321E-03
  0.202500001       8.83935671E-03
  0.202999994       9.04489122E-03
  0.203500003       9.25366674E-03
  0.203999996       9.46568232E-03
  0.204500005       9.68093332E-03
  0.204999998       9.89941414E-03
  0.205500007       1.01211155E-02
  0.206000000       1.03460262E-02
  0.206499994       1.05741331E-02
  0.207000002       1.08054187E-02
  0.207499996       1.10398633E-02
  0.208000004       1.12774465E-02
  0.208499998       1.15181431E-02
  0.209000006       1.17619243E-02
  0.209500000       1.20087601E-02
  0.209999993       1.22586191E-02
  0.210500002       1.25114629E-02
  0.210999995       1.27672525E-02
  0.211500004       1.30259413E-02
  0.211999997       1.32874846E-02
  0.212500006       1.35518368E-02
  0.213000000       1.38189374E-02
  0.213499993       1.40887331E-02
  0.214000002       1.43611617E-02
  0.214499995       1.46361599E-02
  0.215000004       1.49136595E-02
  0.215499997       1.51935872E-02
  0.216000006       1.54758673E-02
  0.216499999       1.57604180E-02
  0.216999993       1.60471555E-02
  0.217500001       1.63359921E-02
  0.217999995       1.66268330E-02
  0.218500003       1.69195812E-02
  0.218999997       1.72141381E-02
  0.219500005       1.75103936E-02
  0.219999999       1.78082380E-02
  0.220500007       1.81075577E-02
  0.221000001       1.84082352E-02
  0.221499994       1.87101420E-02
  0.222000003       1.90131534E-02
  0.222499996       1.93171352E-02
  0.223000005       1.96219515E-02
  0.223499998       1.99274570E-02
  0.224000007       2.02335063E-02
  0.224500000       2.05399469E-02
  0.224999994       2.08466221E-02
  0.225500003       2.11533699E-02
  0.225999996       2.14600246E-02
  0.226500005       2.17664167E-02
  0.226999998       2.20723674E-02
  0.227500007       2.23776978E-02
  0.228000000       2.26822197E-02
  0.228499994       2.29857452E-02
  0.229000002       2.32880767E-02
  0.229499996       2.35890169E-02
  0.230000004       2.38883570E-02
  0.230499998       2.41858866E-02
  0.231000006       2.44813934E-02
  0.231500000       2.47746576E-02
  0.231999993       2.50654537E-02
  0.232500002       2.53535528E-02
  0.232999995       2.56387219E-02
  0.233500004       2.59207245E-02
  0.233999997       2.61993185E-02
  0.234500006       2.64742561E-02
  0.234999999       2.67452858E-02
  0.235499993       2.70121582E-02
  0.236000001       2.72746123E-02
  0.236499995       2.75323838E-02
  0.237000003       2.77852044E-02
  0.237499997       2.80328058E-02
  0.238000005       2.82749198E-02
  0.238499999       2.85112597E-02
  0.238999993       2.87415516E-02
  0.239500001       2.89655142E-02
  0.239999995       2.91828532E-02
  0.240500003       2.93932855E-02
  0.240999997       2.95965150E-02
  0.241500005       2.97922492E-02
  0.241999999       2.99801864E-02
  0.242500007       3.01600304E-02
  0.243000001       3.03314738E-02
  0.243499994       3.04942187E-02
  0.244000003       3.06479521E-02
  0.244499996       3.07923760E-02
  0.245000005       3.09271775E-02
  0.245499998       3.10520455E-02
  0.246000007       3.11666764E-02
  0.246500000       3.12707499E-02
  0.246999994       3.13639641E-02
  0.247500002       3.14459987E-02
  0.247999996       3.15165520E-02
  0.248500004       3.15753073E-02
  0.248999998       3.16219591E-02
  0.249500006       3.16562019E-02
  0.250000000       3.16777229E-02
  0.250499994       3.16862166E-02
  0.250999987       3.16813812E-02
  0.251500010       3.16629112E-02
  0.252000004       3.16305161E-02
  0.252499998       3.15838940E-02
  0.252999991       3.15227471E-02
  0.253500015       3.14467922E-02
  0.254000008       3.13557349E-02
  0.254500002       3.12492996E-02
  0.254999995       3.11272070E-02
  0.255499989       3.09891813E-02
  0.256000012       3.08349542E-02
  0.256500006       3.06642670E-02
  0.256999999       3.04768607E-02
  0.257499993       3.02724801E-02
  0.257999986       3.00508831E-02
  0.258500010       2.98118312E-02
  0.259000003       2.95550935E-02
  0.259499997       2.92804483E-02
  0.259999990       2.89876778E-02
  0.260500014       2.86765732E-02
  0.261000007       2.83469390E-02
  0.261500001       2.79985815E-02
  0.261999995       2.76313182E-02
  0.262499988       2.72449795E-02
  0.263000011       2.68394053E-02
  0.263500005       2.64144409E-02
  0.263999999       2.59699430E-02
  0.264499992       2.55057849E-02
  0.264999986       2.50218436E-02
  0.265500009       2.45180130E-02
  0.266000003       2.39941943E-02
  0.266499996       2.34503057E-02
  0.266999990       2.28862707E-02
  0.267500013       2.23020352E-02
  0.268000007       2.16975510E-02
  0.268500000       2.10727863E-02
  0.268999994       2.04277206E-02
  0.269499987       1.97623502E-02
  0.270000011       1.90766808E-02
  0.270500004       1.83707401E-02
  0.270999998       1.76445618E-02
  0.271499991       1.68982036E-02
  0.272000015       1.61317326E-02
  0.272500008       1.53452288E-02
  0.273000002       1.45387948E-02
  0.273499995       1.37125440E-02
  0.273999989       1.28666079E-02
  0.274500012       1.20011326E-02
  0.275000006       1.11162793E-02
  0.275500000       1.02122296E-02
  0.275999993       9.28917807E-03
  0.276499987       8.34733807E-03
  0.277000010       7.38694007E-03
  0.277500004       6.40822854E-03
  0.277999997       5.41146798E-03
  0.278499991       4.39693918E-03
  0.279000014       3.36493948E-03
  0.279500008       2.31578341E-03
  0.280000001       1.24980381E-03
  0.280499995       1.67349586E-04
  0.280999988      -9.31211805E-04
  0.281500012      -2.04549613E-03
  0.282000005      -3.17510194E-03
  0.282499999      -4.31961054E-03
  0.282999992      -5.47858793E-03
  0.283499986      -6.65158127E-03
  0.284000009      -7.83811882E-03
  0.284500003      -9.03771818E-03
  0.284999996      -1.02498736E-02
  0.285499990      -1.14740701E-02
  0.286000013      -1.27097722E-02
  0.286500007      -1.39564313E-02
  0.287000000      -1.52134802E-02
  0.287499994      -1.64803360E-02
  0.287999988      -1.77564044E-02
  0.288500011      -1.90410763E-02
  0.289000005      -2.03337222E-02
  0.289499998      -2.16337088E-02
  0.289999992      -2.29403805E-02
  0.290499985      -2.42530685E-02
  0.291000009      -2.55710930E-02
  0.291500002      -2.68937647E-02
  0.291999996      -2.82203760E-02
  0.292499989      -2.95502115E-02
  0.293000013      -3.08825485E-02
  0.293500006      -3.22166383E-02
  0.294000000      -3.35517377E-02
  0.294499993      -3.48870866E-02
  0.294999987      -3.62219065E-02
  0.295500010      -3.75554226E-02
  0.296000004      -3.88868526E-02
  0.296499997      -4.02154028E-02
  0.296999991      -4.15402614E-02
  0.297500014      -4.28606272E-02
  0.298000008      -4.41756845E-02
  0.298500001      -4.54846099E-02
  0.298999995      -4.67865840E-02
  0.299499989      -4.80807722E-02
  0.300000012      -4.93663512E-02
  0.300500005      -5.06424792E-02
  0.300999999      -5.19083180E-02
  0.301499993      -5.31630255E-02
  0.301999986      -5.44057600E-02
  0.302500010      -5.56356944E-02
  0.303000003      -5.68519756E-02
  0.303499997      -5.80537803E-02
  0.303999990      -5.92402704E-02
  0.304500014      -6.04106076E-02
  0.305000007      -6.15639612E-02
  0.305500001      -6.26995191E-02
  0.305999994      -6.38164356E-02
  0.306499988      -6.49139211E-02
  0.307000011      -6.59911633E-02
  0.307500005      -6.70473501E-02
  0.307999998      -6.80817142E-02
  0.308499992      -6.90934509E-02
  0.308999985      -7.00817928E-02
  0.309500009      -7.10459873E-02
  0.310000002      -7.19852671E-02
  0.310499996      -7.28989020E-02
  0.310999990      -7.37861544E-02
  0.311500013      -7.46463165E-02
  0.312000006      -7.54786879E-02
  0.312500000      -7.62825906E-02
  0.312999994      -7.70573318E-02
  0.313499987      -7.78022781E-02
  0.314000010      -7.85167813E-02
  0.314500004      -7.92002156E-02
  0.314999998      -7.98519850E-02
  0.315499991      -8.04715082E-02
  0.316000015      -8.10582116E-02
  0.316500008      -8.16115662E-02
  0.317000002      -8.21310356E-02
  0.317499995      -8.26161280E-02
  0.317999989      -8.30663517E-02
  0.318500012      -8.34812596E-02
  0.319000006      -8.38604197E-02
  0.319499999      -8.42033997E-02
  0.319999993      -8.45098421E-02
  0.320499986      -8.47793669E-02
  0.321000010      -8.50116387E-02
  0.321500003      -8.52063373E-02
  0.321999997      -8.53631869E-02
  0.322499990      -8.54819342E-02
  0.323000014      -8.55623260E-02
  0.323500007      -8.56041685E-02
  0.324000001      -8.56072754E-02
  0.324499995      -8.55714902E-02
  0.324999988      -8.54966864E-02
  0.325500011      -8.53827745E-02
  0.326000005      -8.52296650E-02
  0.326499999      -8.50373209E-02
  0.326999992      -8.48057419E-02
  0.327499986      -8.45349282E-02
  0.328000009      -8.42249244E-02
  0.328500003      -8.38757828E-02
  0.328999996      -8.34876373E-02
  0.329499990      -8.30605850E-02
  0.330000013      -8.25948045E-02
  0.330500007      -8.20904672E-02
  0.331000000      -8.15478042E-02
  0.331499994      -8.09670612E-02
  0.331999987      -8.03485066E-02
  0.332500011      -7.96924457E-02
  0.333000004      -7.89992064E-02
  0.333499998      -7.82691464E-02
  0.333999991      -7.75026530E-02
  0.334500015      -7.67001510E-02
  0.335000008      -7.58620873E-02
  0.335500002      -7.49889016E-02
  0.335999995      -7.40811005E-02
  0.336499989      -7.31392205E-02
  0.337000012      -7.21637756E-02
  0.337500006      -7.11553618E-02
  0.338000000      -7.01145604E-02
  0.338499993      -6.90419897E-02
  0.338999987      -6.79382905E-02
  0.339500010      -6.68041185E-02
  0.340000004      -6.56401739E-02
  0.340499997      -6.44471496E-02
  0.340999991      -6.32257909E-02
  0.341500014      -6.19768314E-02
  0.342000008      -6.07010499E-02
  0.342500001      -5.93992323E-02
  0.342999995      -5.80721945E-02
  0.343499988      -5.67207634E-02
  0.344000012      -5.53457923E-02
  0.344500005      -5.39481454E-02
  0.344999999      -5.25287017E-02
  0.345499992      -5.10883592E-02
  0.345999986      -4.96280342E-02
  0.346500009      -4.81486432E-02
  0.347000003      -4.66511361E-02
  0.347499996      -4.51364517E-02
  0.347999990      -4.36055511E-02
  0.348500013      -4.20594104E-02
  0.349000007      -4.04990017E-02
  0.349500000      -3.89253125E-02
  0.349999994      -3.73393334E-02
  0.350499988      -3.57420668E-02
  0.351000011      -3.41345109E-02
  0.351500005      -3.25176790E-02
  0.351999998      -3.08925807E-02
  0.352499992      -2.92602368E-02
  0.352999985      -2.76216622E-02
  0.353500009      -2.59778779E-02
  0.354000002      -2.43299045E-02
  0.354499996      -2.26787627E-02
  0.354999989      -2.10254733E-02
  0.355500013      -1.93710551E-02
  0.356000006      -1.77165270E-02
  0.356500000      -1.60629004E-02
  0.356999993      -1.44111831E-02
  0.357499987      -1.27623808E-02
  0.358000010      -1.11174891E-02
  0.358500004      -9.47749708E-03
  0.358999997      -7.84338731E-03
  0.359499991      -6.21613069E-03
  0.360000014      -4.59668832E-03
  0.360500008      -2.98600853E-03
  0.361000001      -1.38503045E-03
  0.361499995       2.05321237E-04
  0.361999989       1.78413722E-03
  0.362500012       3.35051841E-03
  0.363000005       4.90358565E-03
  0.363499999       6.44247094E-03
  0.363999993       7.96632376E-03
  0.364499986       9.47431196E-03
  0.365000010       1.09656192E-02
  0.365500003       1.24394437E-02
  0.365999997       1.38950078E-02
  0.366499990       1.53315477E-02
  0.367000014       1.67483203E-02
  0.367500007       1.81445982E-02
  0.368000001       1.95196811E-02
  0.368499994       2.08728779E-02
  0.368999988       2.22035367E-02
  0.369500011       2.35110037E-02
  0.370000005       2.47946717E-02
  0.370499998       2.60539409E-02
  0.370999992       2.72882320E-02
  0.371499985       2.84969993E-02
  0.372000009       2.96797175E-02
  0.372500002       3.08358874E-02
  0.372999996       3.19650285E-02
  0.373499990       3.30666937E-02
  0.374000013       3.41404565E-02
  0.374500006       3.51859219E-02
  0.375000000       3.62027027E-02
  0.375499994       3.71904597E-02
  0.375999987       3.81488651E-02
  0.376500010       3.90776172E-02
  0.377000004       3.99764515E-02
  0.377499998       4.08451147E-02
  0.377999991       4.16833833E-02
  0.378500015       4.24910598E-02
  0.379000008       4.32679690E-02
  0.379500002       4.40139696E-02
  0.379999995       4.47289273E-02
  0.380499989       4.54127453E-02
  0.381000012       4.60653566E-02
  0.381500006       4.66867015E-02
  0.381999999       4.72767577E-02
  0.382499993       4.78355289E-02
  0.382999986       4.83630225E-02
  0.383500010       4.88593020E-02
  0.384000003       4.93244305E-02
  0.384499997       4.97584976E-02
  0.384999990       5.01616262E-02
  0.385500014       5.05339503E-02
  0.386000007       5.08756414E-02
  0.386500001       5.11868782E-02
  0.386999995       5.14678657E-02
  0.387499988       5.17188311E-02
  0.388000011       5.19400276E-02
  0.388500005       5.21317124E-02
  0.388999999       5.22941835E-02
  0.389499992       5.24277352E-02
  0.389999986       5.25326990E-02
  0.390500009       5.26094101E-02
  0.391000003       5.26582338E-02
  0.391499996       5.26795350E-02
  0.391999990       5.26737161E-02
  0.392500013       5.26411720E-02
  0.393000007       5.25823310E-02
  0.393500000       5.24976254E-02
  0.393999994       5.23875058E-02
  0.394499987       5.22524342E-02
  0.395000011       5.20928875E-02
  0.395500004       5.19093573E-02
  0.395999998       5.17023429E-02
  0.396499991       5.14723510E-02
  0.397000015       5.12199104E-02
  0.397500008       5.09455539E-02
  0.398000002       5.06498218E-02
  0.398499995       5.03332727E-02
  0.398999989       4.99964617E-02
  0.399500012       4.96399589E-02
  0.400000006       4.92643416E-02
  0.400500000       4.88701984E-02
  0.400999993       4.84581068E-02
  0.401499987       4.80286628E-02
  0.402000010       4.75824587E-02
  0.402500004       4.71201055E-02
  0.402999997       4.66421992E-02
  0.403499991       4.61493433E-02
  0.404000014       4.56421450E-02
  0.404500008       4.51212153E-02
  0.405000001       4.45871651E-02
  0.405499995       4.40405942E-02
  0.405999988       4.34821136E-02
  0.406500012       4.29123342E-02
  0.407000005       4.23318557E-02
  0.407499999       4.17412817E-02
  0.407999992       4.11412157E-02
  0.408499986       4.05322574E-02
  0.409000009       3.99149992E-02
  0.409500003       3.92900296E-02
  0.409999996       3.86579484E-02
  0.410499990       3.80193368E-02
  0.411000013       3.73747684E-02
  0.411500007       3.67248207E-02
  0.412000000       3.60700563E-02
  0.412499994       3.54110487E-02
  0.412999988       3.47483456E-02
  0.413500011       3.40824984E-02
  0.414000005       3.34140472E-02
  0.414499998       3.27435285E-02
  0.414999992       3.20714675E-02
  0.415499985       3.13983746E-02
  0.416000009       3.07247639E-02
  0.416500002       3.00511252E-02
  0.416999996       2.93779504E-02
  0.417499989       2.87057143E-02
  0.418000013       2.80348845E-02
  0.418500006       2.73659173E-02
  0.419000000       2.66992580E-02
  0.419499993       2.60353442E-02
  0.419999987       2.53745951E-02
  0.420500010       2.47174259E-02
  0.421000004       2.40642391E-02
  0.421499997       2.34154258E-02
  0.421999991       2.27713622E-02
  0.422500014       2.21324190E-02
  0.423000008       2.14989521E-02
  0.423500001       2.08713058E-02
  0.423999995       2.02498138E-02
  0.424499989       1.96347963E-02
  0.425000012       1.90265663E-02
  0.425500005       1.84254181E-02
  0.425999999       1.78316385E-02
  0.426499993       1.72455031E-02
  0.426999986       1.66672729E-02
  0.427500010       1.60971917E-02
  0.428000003       1.55355008E-02