   0.00000000      -1.32465830E-05
   5.00000024E-04  -1.15996645E-05
   1.00000005E-03  -7.55415385E-06
   1.50000001E-03  -1.57001034E-06
   2.00000009E-03   5.64026323E-06
   2.49999994E-03   1.31760635E-05
   3.00000003E-03   2.00388349E-05
   3.50000011E-03   2.52344362E-05
   4.00000019E-03   2.78783864E-05
   4.49999981E-03   2.72943016E-05
   4.99999989E-03   2.30963014E-05
   5.49999997E-03   1.52472403E-05
   6.00000005E-03   4.08680989E-06
   6.50000013E-03  -9.67418964E-06
   7.00000022E-03  -2.49941404E-05
   7.49999983E-03  -4.05732171E-05
   8.00000038E-03  -5.49533579E-05
   8.50000046E-03  -6.66379201E-05
   8.99999961E-03  -7.42216798E-05
   9.49999969E-03  -7.65205623E-05
   9.99999978E-03  -7.26899816E-05
   1.04999999E-02  -6.23215601E-05
   1.09999999E-02  -4.55091176E-05
   1.15000000E-02  -2.28771805E-05
   1.20000001E-02   4.43207227E-06
   1.25000002E-02   3.48141184E-05
   1.30000003E-02   6.62972670E-05
   1.35000004E-02   9.66717344E-05
   1.40000004E-02   1.23644335E-04
   1.44999996E-02   1.45007114E-04
   1.49999997E-02   1.58808398E-04
   1.54999997E-02   1.63512363E-04
   1.60000008E-02   1.58135299E-04
   1.64999999E-02   1.42346486E-04
   1.70000009E-02   1.16525734E-04
   1.75000001E-02   8.17706023E-05
   1.79999992E-02   3.98520351E-05
   1.85000002E-02  -6.88099726E-06
   1.89999994E-02  -5.56422237E-05
   1.95000004E-02  -1.03385180E-04
   1.99999996E-02  -1.47005267E-04
   2.05000006E-02  -1.83552998E-04
   2.09999997E-02  -2.10442900E-04
   2.15000007E-02  -2.25643307E-04
   2.19999999E-02  -2.27833007E-04
   2.25000009E-02  -2.16512271E-04
   2.30000000E-02  -1.92059961E-04
   2.34999992E-02  -1.55730115E-04
   2.40000002E-02  -1.09588589E-04
   2.44999994E-02  -5.63910799E-05
   2.50000004E-02   5.88987405E-07
   2.54999995E-02   5.77712417E-05
   2.60000005E-02   1.11506102E-04
   2.64999997E-02   1.58320196E-04
   2.70000007E-02   1.95154906E-04
   2.74999999E-02   2.19579641E-04
   2.80000009E-02   2.29966594E-04
   2.85000000E-02   2.25611861E-04
   2.89999992E-02   2.06795215E-04
   2.95000002E-02   1.74773726E-04
   2.99999993E-02   1.31707522E-04
   3.05000003E-02   8.05229283E-05
   3.09999995E-02   2.47228400E-05
   3.15000005E-02  -3.18471248E-05
   3.20000015E-02  -8.52551093E-05
   3.24999988E-02  -1.31751178E-04
   3.29999998E-02  -1.68022947E-04
   3.35000008E-02  -1.91425759E-04
   3.40000018E-02  -2.00167255E-04
   3.44999991E-02  -1.93437139E-04
   3.50000001E-02  -1.71470048E-04
   3.55000012E-02  -1.35537644E-04
   3.59999985E-02  -8.78711144E-05
   3.64999995E-02  -3.15166217E-05
   3.70000005E-02   2.98650702E-05
   3.75000015E-02   9.22403415E-05
   3.79999988E-02   1.51473985E-04
   3.84999998E-02   2.03606047E-04
   3.90000008E-02   2.45119852E-04
   3.95000018E-02   2.73179699E-04
   3.99999991E-02   2.85826507E-04
   4.05000001E-02   2.82113208E-04
   4.10000011E-02   2.62171408E-04
   4.14999984E-02   2.27211625E-04
   4.19999994E-02   1.79444338E-04
   4.25000004E-02   1.21942547E-04
   4.30000015E-02   5.84399677E-05
   4.34999987E-02  -6.91401010E-06
   4.39999998E-02  -6.98196018E-05
   4.45000008E-02  -1.26106286E-04
   4.50000018E-02  -1.72007683E-04
   4.54999991E-02  -2.04401964E-04
   4.60000001E-02  -2.21009672E-04
   4.65000011E-02  -2.20539703E-04
   4.69999984E-02  -2.02770141E-04
   4.74999994E-02  -1.68553001E-04
   4.80000004E-02  -1.19754921E-04
   4.85000014E-02  -5.91308963E-05
   4.89999987E-02   9.85808856E-06
   4.94999997E-02   8.32707447E-05
   5.00000007E-02   1.56945462E-04
   5.05000018E-02   2.26758857E-04
   5.09999990E-02   2.88889511E-04
   5.15000001E-02   3.40050581E-04
   5.20000011E-02   3.77695804E-04
   5.24999984E-02   4.00161225E-04
   5.29999994E-02   4.06760111E-04
   5.35000004E-02   3.97803407E-04
   5.40000014E-02   3.74564552E-04
   5.44999987E-02   3.39179329E-04
   5.49999997E-02   2.94503930E-04
   5.55000007E-02   2.43904753E-04
   5.60000017E-02   1.91066400E-04
   5.64999990E-02   1.39732714E-04
   5.70000000E-02   9.34944255E-05
   5.75000010E-02   5.55662300E-05
   5.79999983E-02   2.86184641E-05
   5.84999993E-02   1.46318316E-05
   5.90000004E-02   1.47968904E-05
   5.95000014E-02   2.94790425E-05
   5.99999987E-02   5.82496505E-05
   6.04999997E-02   9.99347103E-05
   6.10000007E-02   1.52717985E-04
   6.15000017E-02   2.14306361E-04
   6.19999990E-02   2.82093883E-04
   6.25000000E-02   3.53315641E-04
   6.30000010E-02   4.25263162E-04
   6.35000020E-02   4.95432643E-04
   6.40000030E-02   5.61665453E-04
   6.44999966E-02   6.22276915E-04
   6.49999976E-02   6.76107826E-04
   6.54999986E-02   7.22601777E-04
   6.59999996E-02   7.61731877E-04
   6.65000007E-02   7.94071588E-04
   6.70000017E-02   8.20603163E-04
   6.75000027E-02   8.42675217E-04
   6.80000037E-02   8.61921813E-04
   6.84999973E-02   8.80090112E-04
   6.89999983E-02   8.98927567E-04
   6.94999993E-02   9.20114981E-04
   7.00000003E-02   9.45143751E-04
   7.05000013E-02   9.75260686E-04
   7.10000023E-02   1.01137813E-03
   7.15000033E-02   1.05410512E-03
   7.19999969E-02   1.10377651E-03
   7.24999979E-02   1.16048043E-03
   7.29999989E-02   1.22400175E-03
   7.34999999E-02   1.29400403E-03
   7.40000010E-02   1.37006375E-03
   7.45000020E-02   1.45174458E-03
   7.50000030E-02   1.53865572E-03
   7.54999965E-02   1.63040916E-03
   7.59999976E-02   1.72684027E-03
   7.64999986E-02   1.82789296E-03
   7.69999996E-02   1.93358480E-03
   7.75000006E-02   2.04423815E-03
   7.80000016E-02   2.16011307E-03
   7.85000026E-02   2.28163577E-03
   7.90000036E-02   2.40927120E-03
   7.94999972E-02   2.54345359E-03
   7.99999982E-02   2.68450310E-03
   8.04999992E-02   2.83282646E-03
   8.10000002E-02   2.98856432E-03
   8.15000013E-02   3.15198093E-03
   8.20000023E-02   3.32298549E-03
   8.25000033E-02   3.50171514E-03
   8.29999968E-02   3.68809304E-03
   8.34999979E-02   3.88212781E-03
   8.39999989E-02   4.08381782E-03
   8.44999999E-02   4.29336540E-03
   8.50000009E-02   4.51106951E-03
   8.55000019E-02   4.73741023E-03
   8.60000029E-02   4.97291563E-03
   8.64999965E-02   5.21860458E-03
   8.69999975E-02   5.47535345E-03
   8.74999985E-02   5.74434642E-03
   8.79999995E-02   6.02662982E-03
   8.85000005E-02   6.32375572E-03
   8.90000015E-02   6.63677650E-03
   8.95000026E-02   6.96681580E-03
   9.00000036E-02   7.31504569E-03
   9.04999971E-02   7.68232811E-03
   9.09999982E-02   8.06936342E-03
   9.14999992E-02   8.47661030E-03
   9.20000002E-02   8.90443753E-03
   9.25000012E-02   9.35313851E-03
   9.30000022E-02   9.82249249E-03
   9.35000032E-02   1.03127379E-02
   9.39999968E-02   1.08239967E-02
   9.44999978E-02   1.13561172E-02
   9.49999988E-02   1.19096264E-02
   9.54999998E-02   1.24850525E-02
   9.60000008E-02   1.30833117E-02
   9.65000018E-02   1.37052294E-02
   9.70000029E-02   1.43526904E-02
   9.74999964E-02   1.50271393E-02
   9.79999974E-02   1.57309603E-02
   9.84999985E-02   1.64667554E-02
   9.89999995E-02   1.72363874E-02
   9.95000005E-02   1.80426724E-02
  0.100000001       1.88883934E-02
  0.100500003       1.97756421E-02
  0.101000004       2.07066499E-02
  0.101499997       2.16831975E-02
  0.101999998       2.27068793E-02
  0.102499999       2.37789713E-02
  0.103000000       2.49002911E-02
  0.103500001       2.60712449E-02
  0.104000002       2.72918344E-02
  0.104500003       2.85627786E-02
  0.104999997       2.98833977E-02
  0.105499998       3.12544703E-02
  0.105999999       3.26762870E-02
  0.106500000       3.41495462E-02
  0.107000001       3.56762521E-02
  0.107500002       3.72575000E-02
  0.108000003       3.88962030E-02
  0.108499996       4.05953228E-02
  0.108999997       4.23580147E-02
  0.109499998       4.41891216E-02
  0.109999999       4.60946858E-02
  0.110500000       4.80783172E-02
  0.111000001       5.01467660E-02
  0.111500002       5.23047708E-02
  0.112000003       5.45582511E-02
  0.112499997       5.69101758E-02
  0.112999998       5.93666360E-02
  0.113499999       6.19329475E-02
  0.114000000       6.46102056E-02
  0.114500001       6.74019903E-02
  0.115000002       7.03102276E-02
  0.115500003       7.33367056E-02
  0.115999997       7.64822215E-02
  0.116499998       7.97481388E-02
  0.116999999       8.31347108E-02
  0.117500000       8.66424963E-02
  0.118000001       9.02747363E-02
  0.118500002       9.40308645E-02
  0.119000003       9.79148299E-02
  0.119499996      0.101928890    
  0.119999997      0.106079213    
  0.120499998      0.110370040    
  0.120999999      0.114805512    
  0.121500000      0.119398266    
  0.122000001      0.124150977    
  0.122500002      0.129074797    
  0.123000003      0.134178236    
  0.123499997      0.139470249    
  0.123999998      0.144960105    
  0.124499999      0.150657251    
  0.125000000      0.156567708    
  0.125499994      0.162703648    
  0.126000002      0.169070035    
  0.126499996      0.175672367    
  0.127000004      0.182518065    
  0.127499998      0.189610615    
  0.128000006      0.196954772    
  0.128500000      0.204550460    
  0.128999993      0.212407485    
  0.129500002      0.220522791    
  0.129999995      0.228905976    
  0.130500004      0.237553194    
  0.130999997      0.246477529    
  0.131500006      0.255678475    
  0.131999999      0.265164167    
  0.132499993      0.274940789    
  0.133000001      0.285017490    
  0.133499995      0.295401871    
  0.134000003      0.306116253    
  0.134499997      0.317155153    
  0.135000005      0.328544468    
  0.135499999      0.340292066    
  0.136000007      0.352408886    
  0.136500001      0.364918202    
  0.136999995      0.377821028    
  0.137500003      0.391140908    
  0.137999997      0.404877007    
  0.138500005      0.419051111    
  0.138999999      0.433666468    
  0.139500007      0.448734134    
  0.140000001      0.464267403    
  0.140499994      0.480265081    
  0.141000003      0.496740729    
  0.141499996      0.513692915    
  0.142000005      0.531135678    
  0.142499998      0.549073100    
  0.143000007      0.567513585    
  0.143500000      0.586448669    
  0.143999994      0.605915189    
  0.144500002      0.625899017    
  0.144999996      0.646418631    
  0.145500004      0.667487741    
  0.145999998      0.689105392    
  0.146500006      0.711302698    
  0.147000000      0.734080493    
  0.147499993      0.757456899    
  0.148000002      0.781434536    
  0.148499995      0.806036949    
  0.149000004      0.831295609    
  0.149499997      0.857194722    
  0.150000006      0.883769572    
  0.150500000      0.911010087    
  0.150999993      0.938958943    
  0.151500002      0.967589557    
  0.151999995      0.996939480    
  0.152500004       1.02700722    
  0.152999997       1.05779946    
  0.153500006       1.08933449    
  0.153999999       1.12161732    
  0.154499993       1.15464401    
  0.155000001       1.18844450    
  0.155499995       1.22299516    
  0.156000003       1.25833607    
  0.156499997       1.29442298    
  0.157000005       1.33132875    
  0.157499999       1.36901689    
  0.158000007       1.40748847    
  0.158500001       1.44675875    
  0.158999994       1.48684609    
  0.159500003       1.52774560    
  0.159999996       1.56947851    
  0.160500005       1.61202943    
  0.160999998       1.65539241    
  0.161500007       1.69965172    
  0.162000000       1.74473345    
  0.162499994       1.79071355    
  0.163000003       1.83749688    
  0.163499996       1.88518655    
  0.164000005       1.93368566    
  0.164499998       1.98310101    
  0.165000007       2.03335547    
  0.165500000       2.08446074    
  0.165999994       2.13643265    
  0.166500002       2.18924499    
  0.166999996       2.24291945    
  0.167500004       2.29742908    
  0.167999998       2.35275960    
  0.168500006       2.40890050    
  0.169000000       2.46593356    
  0.169499993       2.52371597    
  0.170000002       2.58228803    
  0.170499995       2.64164853    
  0.171000004       2.70180416    
  0.171499997       2.76269436    
  0.172000006       2.82429934    
  0.172499999       2.88666725    
  0.172999993       2.94981050    
  0.173500001       3.01360059    
  0.173999995       3.07812786    
  0.174500003       3.14327431    
  0.174999997       3.20907116    
  0.175500005       3.27551341    
  0.175999999       3.34255052    
  0.176499993       3.41016555    
  0.177000001       3.47825623    
  0.177499995       3.54678750    
  0.178000003       3.61582184    
  0.178499997       3.68537045    
  0.179000005       3.75522709    
  0.179499999       3.82547569    
  0.180000007       3.89610863    
  0.180500001       3.96688914    
  0.180999994       4.03797913    
  0.181500003       4.10924721    
  0.181999996       4.18055677    
  0.182500005       4.25206470    
  0.182999998       4.32338810    
  0.183500007       4.39489651    
  0.184000000       4.46618271    
  0.184499994       4.53742981    
  0.185000002       4.60849571    
  0.185499996       4.67916441    
  0.186000004       4.74956083    
  0.186499998       4.81955147    
  0.187000006       4.88894415    
  0.187500000       4.95792866    
  0.187999994       5.02648640    
  0.188500002       5.09420729    
  0.188999996       5.16120768    
  0.189500004       5.22740555    
  0.189999998       5.29260921    
  0.190500006       5.35677338    
  0.191000000       5.41998529    
  0.191499993       5.48190689    
  0.192000002       5.54244804    
  0.192499995       5.60167265    
  0.193000004       5.65945435    
  0.193499997       5.71576786    
  0.194000006       5.77035236    
  0.194499999       5.82315588    
  0.194999993       5.87415361    
  0.195500001       5.92309618    
  0.195999995       5.96979618    
  0.196500003       6.01437378    
  0.196999997       6.05663157    
  0.197500005       6.09628105    
  0.197999999       6.13336134    
  0.198500007       6.16793060    
  0.199000001       6.19948578    
  0.199499995       6.22810555    
  0.200000003       6.25379848    
  0.200499997       6.27602339    
  0.201000005       6.29503393    
  0.201499999       6.31061506    
  0.202000007       6.32229471    
  0.202500001       6.33024931    
  0.202999994       6.33404207    
  0.203500003       6.33406353    
  0.203999996       6.32975149    
  0.204500005       6.32113409    
  0.204999998       6.30778837    
  0.205500007       6.29022360    
  0.206000000       6.26752758    
  0.206499994       6.24027729    
  0.207000002       6.20768213    
  0.207499996       6.17004967    
  0.208000004       6.12708855    
  0.208499998       6.07915497    
  0.209000006       6.02519703    
  0.209500000       5.96575069    
  0.209999993       5.90027714    
  0.210500002       5.82870197    
  0.210999995       5.75106812    
  0.211500004       5.66691446    
  0.211999997       5.57614088    
  0.212500006       5.47886324    
  0.213000000       5.37470245    
  0.213499993       5.26334381    
  0.214000002       5.14499903    
  0.214499995       5.01943684    
  0.215000004       4.88672304    
  0.215499997       4.74609661    
  0.216000006       4.59777308    
  0.216499999       4.44228363    
  0.216999993       4.27809334    
  0.217500001       4.10636711    
  0.217999995       3.92613292    
  0.218500003       3.73800564    
  0.218999997       3.54117632    
  0.219500005       3.33607793    
  0.219999999       3.12223434    
  0.220500007       2.90045786    
  0.221000001       2.66933131    
  0.221499994       2.42961025    
  0.222000003       2.18123603    
  0.222499996       1.92292452    
  0.223000005       1.65642583    
  0.223499998       1.38057458    
  0.224000007       1.09581602    
  0.224500000      0.801981747    
  0.224999994      0.498980135    
  0.225500003      0.186547846    
  0.225999996     -0.135398269    
  0.226500005     -0.466831863    
  0.226999998     -0.808020532    
  0.227500007      -1.15816462    
  0.228000000      -1.51805830    
  0.228499994      -1.88730133    
  0.229000002      -2.26584840    
  0.229499996      -2.65393829    
  0.230000004      -3.05123329    
  0.230499998      -3.45795965    
  0.231000006      -3.87378597    
  0.231500000      -4.29821301    
  0.231999993      -4.73197651    
  0.232500002      -5.17412710    
  0.232999995      -5.62479353    
  0.233500004      -6.08475161    
  0.233999997      -6.55254745    
  0.234500006      -7.02918768    
  0.234999999      -7.51376295    
  0.235499993      -8.00664139    
  0.236000001      -8.50767040    
  0.236499995      -9.01656914    
  0.237000003      -9.53256035    
  0.237499997      -10.0562162    
  0.238000005      -10.5873623    
  0.238499999      -11.1245594    
  0.238999993      -11.6683483    
  0.239500001      -12.2180262    
  0.239999995      -12.7744617    
  0.240500003      -13.3364792    
  0.240999997      -13.9040327    
  0.241500005      -14.4768305    
  0.241999999      -15.0551329    
  0.242500007      -15.6366901    
  0.243000001      -16.2234211    
  0.243499994      -16.8130512    
  0.244000003      -17.4068050    
  0.244499996      -18.0037460    
  0.245000005      -18.6035156    
  0.245499998      -19.2054272    
  0.246000007      -19.8087444    
  0.246500000      -20.4142380    
  0.246999994      -21.0208569    
  0.247500002      -21.6275539    
  0.247999996      -22.2347412    
  0.248500004      -22.8412056    
  0.248999998      -23.4465580    
  0.249500006      -24.0499477    
  0.250000000      -24.6512184    
  0.250499994      -25.2492847    
  0.250999987      -25.8446198    
  0.251500010      -26.4355240    
  0.252000004      -27.0220890    
  0.252499998      -27.6036644    
  0.252999991      -28.1784916    
  0.253500015      -28.7472591    
  0.254000008      -29.3095741    
  0.254500002      -29.8642044    
  0.254999995      -30.4108944    
  0.255499989      -30.9487019    
  0.256000012      -31.4773426    
  0.256500006      -31.9957542    
  0.256999999      -32.5047989    
  0.257499993      -33.0021057    
  0.257999986      -33.4878540    
  0.258500010      -33.9611778    
  0.259000003      -34.4220695    
  0.259499997      -34.8691673    
  0.259999990      -35.3017082    
  0.260500014      -35.7189903    
  0.261000007      -36.1215668    
  0.261500001      -36.5082283    
  0.261999995      -36.8773651    
  0.262499988      -37.2283897    
  0.263000011      -37.5612488    
  0.263500005      -37.8746719    
  0.263999999      -38.1684341    
  0.264499992      -38.4410744    
  0.264999986      -38.6930656    
  0.265500009      -38.9226837    
  0.266000003      -39.1292229    
  0.266499996      -39.3128510    
  0.266999990      -39.4722900    
  0.267500013      -39.6079178    
  0.268000007      -39.7181435    
  0.268500000      -39.8032494    
  0.268999994      -39.8620148    
  0.269499987      -39.8942451    
  0.270000011      -39.8999557    
  0.270500004      -39.8784828    
  0.270999998      -39.8290291    
  0.271499991      -39.7519760    
  0.272000015      -39.6457291    
  0.272500008      -39.5109138    
  0.273000002      -39.3462830    
  0.273499995      -39.1517830    
  0.273999989      -38.9264793    
  0.274500012      -38.6709938    
  0.275000006      -38.3834038    
  0.275500000      -38.0647011    
  0.275999993      -37.7138214    
  0.276499987      -37.3300438    
  0.277000010      -36.9134903    
  0.277500004      -36.4642181    
  0.277999997      -35.9812355    
  0.278499991      -35.4647179    
  0.279000014      -34.9142685    
  0.279500008      -34.3304634    
  0.280000001      -33.7125854    
  0.280499995      -33.0610428    
  0.280999988      -32.3757210    
  0.281500012      -31.6569538    
  0.282000005      -30.9049110    
  0.282499999      -30.1198406    
  0.282999992      -29.3012619    
  0.283499986      -28.4500542    
  0.284000009      -27.5663757    
  0.284500003      -26.6503696    
  0.284999996      -25.7021599    
  0.285499990      -24.7221928    
  0.286000013      -23.7116013    
  0.286500007      -22.6696320    
  0.287000000      -21.5973072    
  0.287499994      -20.4948635    
  0.287999988      -19.3627834    
  0.288500011      -18.2015285    
  0.289000005      -17.0103588    
  0.289499998      -15.7912912    
  0.289999992      -14.5439091    
  0.290499985      -13.2698812    
  0.291000009      -11.9679918    
  0.291500002      -10.6408005    
  0.291999996      -9.28742695    
  0.292499989      -7.90942812    
  0.293000013      -6.50651979    
  0.293500006      -5.08225298    
  0.294000000      -3.63425565    
  0.294499993      -2.16550589    
  0.294999987     -0.676768243    
  0.295500010      0.831411839    
  0.296000004       2.35739326    
  0.296499997       3.90011096    
  0.296999991       5.45768547    
  0.297500014       7.03029680    
  0.298000008       8.61551952    
  0.298500001       10.2119942    
  0.298999995       11.8201809    
  0.299499989       13.4371424    
  0.300000012       15.0621157    
  0.300500005       16.6924973    
  0.300999999       18.3299789    
  0.301499993       19.9725170    
  0.301999986       21.6183376    
  0.302500010       23.2661514    
  0.303000003       24.9152107    
  0.303499997       26.5628929    
  0.303999990       28.2091179    
  0.304500014       29.8524551    
  0.305000007       31.4922485    
  0.305500001       33.1264763    
  0.305999994       34.7534218    
  0.306499988       36.3718910    
  0.307000011       37.9812775    
  0.307500005       39.5785294    
  0.307999998       41.1631775    
  0.308499992       42.7310829    
  0.308999985       44.2827225    
  0.309500009       45.8183250    
  0.310000002       47.3340416    
  0.310499996       48.8278656    
  0.310999990       50.2996407    
  0.311500013       51.7472725    
  0.312000006       53.1685104    
  0.312500000       54.5616341    
  0.312999994       55.9260063    
  0.313499987       57.2603226    
  0.314000010       58.5650558    
  0.314500004       59.8353691    
  0.314999998       61.0727730    
  0.315499991       62.2756729    
  0.316000015       63.4424820    
  0.316500008       64.5725555    
  0.317000002       65.6643829    
  0.317499995       66.7171555    
  0.317999989       67.7294083    
  0.318500012       68.7019348    
  0.319000006       69.6306534    
  0.319499999       70.5189209    
  0.319999993       71.3631363    
  0.320499986       72.1605911    
  0.321000010       72.9118881    
  0.321500003       73.6148376    
  0.321999997       74.2702408    
  0.322499990       74.8756561    
  0.323000014       75.4315033    
  0.323500007       75.9351578    
  0.324000001       76.3857574    
  0.324499995       76.7848206    
  0.324999988       77.1259842    
  0.325500011       77.4147720    
  0.326000005       77.6476746    
  0.326499999       77.8246384    
  0.326999992       77.9471207    
  0.327499986       78.0131302    
  0.328000009       78.0220947    
  0.328500003       77.9743576    
  0.328999996       77.8714447    
  0.329499990       77.7110901    
  0.330000013       77.4944916    
  0.330500007       77.2222366    
  0.331000000       76.8944550    
  0.331499994       76.5098190    
  0.331999987       76.0690765    
  0.332500011       75.5715790    
  0.333000004       75.0194244    
  0.333499998       74.4094315    
  0.333999991       73.7459564    
  0.334500015       73.0263596    
  0.335000008       72.2534103    
  0.335500002       71.4242935    
  0.335999995       70.5436478    
  0.336499989       69.6105576    
  0.337000012       68.6227112    
  0.337500006       67.5839920    
  0.338000000       66.4960022    
  0.338499993       65.3582993    
  0.338999987       64.1710892    
  0.339500010       62.9359055    
  0.340000004       61.6531792    
  0.340499997       60.3250694    
  0.340999991       58.9532433    
  0.341500014       57.5361671    
  0.342000008       56.0770607    
  0.342500001       54.5753937    
  0.342999995       53.0334778    
  0.343499988       51.4514961    
  0.344000012       49.8319168    
  0.344500005       48.1751938    
  0.344999999       46.4839897    
  0.345499992       44.7586670    
  0.345999986       43.0002060    
  0.346500009       41.2120590    
  0.347000003       39.3951912    
  0.347499996       37.5496674    
  0.347999990       35.6791458    
  0.348500013       33.7853012    
  0.349000007       31.8686829    
  0.349500000       29.9317818    
  0.349999994       27.9770699    
  0.350499988       26.0052681    
  0.351000011       24.0186310    
  0.351500005       22.0188236    
  0.351999998       20.0069771    
  0.352499992       17.9854870    
  0.352999985       15.9553242    
  0.353500009       13.9173851    
  0.354000002       11.8747768    
  0.354499996       9.82732105    
  0.354999989       7.77804852    
  0.355500013       5.72731304    
  0.356000006       3.67767024    
  0.356500000       1.63009071    
  0.356999993     -0.413530111    
  0.357499987      -2.45152044    
  0.358000010      -4.48183346    
  0.358500004      -6.50274467    
  0.358999997      -8.51235199    
  0.359499991      -10.5087652    
  0.360000014      -12.4904537    
  0.360500008      -14.4548073    
  0.361000001      -16.4000626    
  0.361499995      -18.3241787    
  0.361999989      -20.2254868    
  0.362500012      -22.1020660    
  0.363000005      -23.9523220    
  0.363499999      -25.7745323    
  0.363999993      -27.5673447    
  0.364499986      -29.3292084    
  0.365000010      -31.0600624    
  0.365500003      -32.7577553    
  0.365999997      -34.4216728    
  0.366499990      -36.0504036    
  0.367000014      -37.6437645    
  0.367500007      -39.2009621    
  0.368000001      -40.7211838    
  0.368499994      -42.2030602    
  0.368999988      -43.6459084    
  0.369500011      -45.0498505    
  0.370000005      -46.4131088    
  0.370499998      -47.7346916    
  0.370999992      -49.0148010    
  0.371499985      -50.2511253    
  0.372000009      -51.4439507    
  0.372500002      -52.5911369    
  0.372999996      -53.6916695    
  0.373499990      -54.7450294    
  0.374000013      -55.7501411    
  0.374500006      -56.7069931    
  0.375000000      -57.6132278    
  0.375499994      -58.4685211    
  0.375999987      -59.2731819    
  0.376500010      -60.0250778    
  0.377000004      -60.7254753    
  0.377499998      -61.3744888    
  0.377999991      -61.9710922    
  0.378500015      -62.5149727    
  0.379000008      -63.0072174    
  0.379500002      -63.4488335    
  0.379999995      -63.8393250    
  0.380499989      -64.1794815    
  0.381000012      -64.4695053    
  0.381500006      -64.7104721    
  0.381999999      -64.9012146    
  0.382499993      -65.0437469    
  0.382999986      -65.1379395    
  0.383500010      -65.1845245    
  0.384000003      -65.1839294    
  0.384499997      -65.1357880    
  0.384999990      -65.0410843    
  0.385500014      -64.8996353    
  0.386000007      -64.7116241    
  0.386500001      -64.4781036    
  0.386999995      -64.1990662    
  0.387499988      -63.8762093    
  0.388000011      -63.5080910    
  0.388500005      -63.0951843    
  0.388999999      -62.6397591    
  0.389499992      -62.1409225    
  0.389999986      -61.6005287    
  0.390500009      -61.0202866    
  0.391000003      -60.3993263    
  0.391499996      -59.7397346    
  0.391999990      -59.0434341    
  0.392500013      -58.3094330    
  0.393000007      -57.5415230    
  0.393500000      -56.7387619    
  0.393999994      -55.9036217    
  0.394499987      -55.0372238    
  0.395000011      -54.1414604    
  0.395500004      -53.2168388    
  0.395999998      -52.2649498    
  0.396499991      -51.2867584    
  0.397000015      -50.2833748    
  0.397500008      -49.2561340    
  0.398000002      -48.2055130    
  0.398499995      -47.1332664    
  0.398999989      -46.0405350    
  0.399500012      -44.9273338    
  0.400000006      -43.7957649    
  0.400500000      -42.6457024    
  0.400999993      -41.4786758    
  0.401499987      -40.2956810    
  0.402000010      -39.0985184    
  0.402500004      -37.8862572    
  0.402999997      -36.6610756    
  0.403499991      -35.4246826    
  0.404000014      -34.1772881    
  0.404500008      -32.9192886    
  0.405000001      -31.6540070    
  0.405499995      -30.3816452    
  0.405999988      -29.1029816    
  0.406500012      -27.8202438    
  0.407000005      -26.5354576    
  0.407499999      -25.2485008    
  0.407999992      -23.9613571    
  0.408499986      -22.6746693    
  0.409000009      -21.3901577    
  0.409500003      -20.1084156    
  0.409999996      -18.8314075    
  0.410499990      -17.5587158    
  0.411000013      -16.2928467    
  0.411500007      -15.0338526    
  0.412000000      -13.7828360    
  0.412499994      -12.5387106    
  0.412999988      -11.3045664    
  0.413500011      -10.0793962    
  0.414000005      -8.86551094    
  0.414499998      -7.66219854    
  0.414999992      -6.46944857    
  0.415499985      -5.28868723    
  0.416000009      -4.12129068    
  0.416500002      -2.96540976    
  0.416999996      -1.82316983    
  0.417499989     -0.694964051    
  0.418000013      0.419262111    
  0.418500006       1.51801085    
  0.419000000       2.60099149    
  0.419499993       3.66839194    
  0.419999987       4.71783304    
  0.420500010       5.74981499    
  0.421000004       6.76327133    
  0.421499997       7.75836229    
  0.421999991       8.73321342    
  0.422500014       9.68748665    
  0.423000008       10.6210594    
  0.423500001       11.5331478    
  0.423999995       12.4242878    
  0.424499989       13.2937937    
  0.425000012       14.1413031    
  0.425500005       14.9665365    
  0.425999999       15.7696829    
  0.426499993       16.5503845    
  0.426999986       17.3089428    
  0.427500010       18.0456944    
  0.428000003       18.7607155    