   0.00000000       0.00000000    
   5.00000024E-04   0.00000000    
   1.00000005E-03   0.00000000    
   1.50000001E-03   0.00000000    
   2.00000009E-03   0.00000000    
   2.49999994E-03   0.00000000    
   3.00000003E-03   0.00000000    
   3.50000011E-03   0.00000000    
   4.00000019E-03   0.00000000    
   4.49999981E-03  -2.05773802E-35
   4.99999989E-03  -2.81961881E-34
   5.49999997E-03  -2.65068319E-33
   6.00000005E-03  -1.72822458E-32
   6.50000013E-03  -8.74795725E-32
   7.00000022E-03  -3.67153859E-31
   7.49999983E-03  -1.32451092E-30
   8.00000038E-03  -4.20645218E-30
   8.50000046E-03  -1.19519917E-29
   8.99999961E-03  -3.06924170E-29
   9.49999969E-03  -7.15776799E-29
   9.99999978E-03  -1.51394897E-28
   1.04999999E-02  -2.87302742E-28
   1.09999999E-02  -4.74262127E-28
   1.15000000E-02  -6.20635884E-28
   1.20000001E-02  -3.93756955E-28
   1.25000002E-02   1.11280338E-27
   1.30000003E-02   6.04292221E-27
   1.35000004E-02   1.90225580E-26
   1.40000004E-02   4.93785912E-26
   1.44999996E-02   1.14918976E-25
   1.49999997E-02   2.48122368E-25
   1.54999997E-02   5.05903845E-25
   1.60000008E-02   9.84507087E-25
   1.64999999E-02   1.84143564E-24
   1.70000009E-02   3.32684535E-24
   1.75000001E-02   5.82677750E-24
   1.79999992E-02   9.92128746E-24
   1.85000002E-02   1.64592562E-23
   1.89999994E-02   2.66517635E-23
   1.95000004E-02   4.21835133E-23
   1.99999996E-02   6.53392536E-23
   2.05000006E-02   9.91376078E-23
   2.09999997E-02   1.47459383E-22
   2.15000007E-02   2.15151298E-22
   2.19999999E-02   3.08072499E-22
   2.25000009E-02   4.33047529E-22
   2.30000000E-02   5.97673535E-22
   2.34999992E-02   8.09913722E-22
   2.40000002E-02   1.07742032E-21
   2.44999994E-02   1.40648694E-21
   2.50000004E-02   1.80056802E-21
   2.54999995E-02   2.25828930E-21
   2.60000005E-02   2.77089571E-21
   2.64999997E-02   3.31912097E-21
   2.70000007E-02   3.86951900E-21
   2.74999999E-02   4.37034576E-21
   2.80000009E-02   4.74722831E-21
   2.85000000E-02   4.89890488E-21
   2.89999992E-02   4.69347853E-21
   2.95000002E-02   3.96583828E-21
   2.99999993E-02   2.51687857E-21
   3.05000003E-02   1.15556473E-22
   3.09999995E-02  -3.49540879E-21
   3.15000005E-02  -8.58895719E-21
   3.20000015E-02  -1.54373680E-20
   3.24999988E-02  -2.42889825E-20
   3.29999998E-02  -3.53375758E-20
   3.35000008E-02  -4.86838410E-20
   3.40000018E-02  -6.42889296E-20
   3.44999991E-02  -8.19215897E-20
   3.50000001E-02  -1.01099559E-19
   3.55000012E-02  -1.21030327E-19
   3.59999985E-02  -1.40551130E-19
   3.64999995E-02  -1.58078144E-19
   3.70000005E-02  -1.71568155E-19
   3.75000015E-02  -1.78500678E-19
   3.79999988E-02  -1.75891453E-19
   3.84999998E-02  -1.60340380E-19
   3.90000008E-02  -1.28131789E-19
   3.95000018E-02  -7.53852538E-20
   3.99999991E-02   1.72710021E-21
   4.05000001E-02   1.06702027E-19
   4.10000011E-02   2.42353812E-19
   4.14999984E-02   4.10406023E-19
   4.19999994E-02   6.11023067E-19
   4.25000004E-02   8.42312227E-19
   4.30000015E-02   1.09980259E-18
   4.34999987E-02   1.37595002E-18
   4.39999998E-02   1.65968858E-18
   4.45000008E-02   1.93608964E-18
   4.50000018E-02   2.18615998E-18
   4.54999991E-02   2.38686357E-18
   4.60000001E-02   2.51138259E-18
   4.65000011E-02   2.52969967E-18
   4.69999984E-02   2.40953101E-18
   4.74999994E-02   2.11766943E-18
   4.80000004E-02   1.62169059E-18
   4.85000014E-02   8.92130110E-19
   4.89999987E-02  -9.50425225E-20
   4.94999997E-02  -1.35557966E-18
   5.00000007E-02  -2.89392157E-18
   5.05000018E-02  -4.70006754E-18
   5.09999990E-02  -6.74650658E-18
   5.15000001E-02  -8.98551576E-18
   5.20000011E-02  -1.13467971E-17
   5.24999984E-02  -1.37360686E-17
   5.29999994E-02  -1.60344727E-17
   5.35000004E-02  -1.80993884E-17
   5.40000014E-02  -1.97666586E-17
   5.44999987E-02  -2.08545931E-17
   5.49999997E-02  -2.11697141E-17
   5.55000007E-02  -2.05143786E-17
   5.60000017E-02  -1.86965169E-17
   5.64999990E-02  -1.55406839E-17
   5.70000000E-02  -1.09009112E-17
   5.75000010E-02  -4.67447953E-18
   5.79999983E-02   3.18365564E-18
   5.84999993E-02   1.26469257E-17
   5.90000004E-02   2.36039445E-17
   5.95000014E-02   3.58467056E-17
   5.99999987E-02   4.90624876E-17
   6.04999997E-02   6.28285828E-17
   6.10000007E-02   7.66120257E-17
   6.15000017E-02   8.97750832E-17
   6.19999990E-02   1.01586700E-16
   6.25000000E-02   1.11240599E-16
   6.30000010E-02   1.17880755E-16
   6.35000020E-02   1.20633069E-16
   6.40000030E-02   1.18644580E-16
   6.44999966E-02   1.11126686E-16
   6.49999976E-02   9.74044148E-17
   6.54999986E-02   7.69663701E-17
   6.59999996E-02   4.95167983E-17
   6.65000007E-02   1.50244239E-17
   6.70000017E-02  -2.62327411E-17
   6.75000027E-02  -7.36308999E-17
   6.80000037E-02  -1.26174200E-16
   6.84999973E-02  -1.82482171E-16
   6.89999983E-02  -2.40793282E-16
   6.94999993E-02  -2.98985716E-16
   7.00000003E-02  -3.54619528E-16
   7.05000013E-02  -4.04999380E-16
   7.10000023E-02  -4.47255631E-16
   7.15000033E-02  -4.78446719E-16
   7.19999969E-02  -4.95678281E-16
   7.24999979E-02  -4.96236740E-16
   7.29999989E-02  -4.77727112E-16
   7.34999999E-02  -4.38225068E-16
   7.40000010E-02  -3.76415857E-16
   7.45000020E-02  -2.91728232E-16
   7.50000030E-02  -1.84453005E-16
   7.54999965E-02  -5.58342943E-17
   7.59999976E-02   9.18688758E-17
   7.64999986E-02   2.55361375E-16
   7.69999996E-02   4.30329821E-16
   7.75000006E-02   6.11512419E-16
   7.80000016E-02   7.92814104E-16
   7.85000026E-02   9.67472033E-16
   7.90000036E-02   1.12827213E-15
   7.94999972E-02   1.26779858E-15
   7.99999982E-02   1.37872326E-15
   8.04999992E-02   1.45412084E-15
   8.10000002E-02   1.48778743E-15
   8.15000013E-02   1.47457266E-15
   8.20000023E-02   1.41067450E-15
   8.25000033E-02   1.29391292E-15
   8.29999968E-02   1.12396317E-15
   8.34999979E-02   9.02498676E-16
   8.39999989E-02   6.33289583E-16
   8.44999999E-02   3.22182958E-16
   8.50000009E-02  -2.29825880E-17
   8.55000019E-02  -3.92589739E-16
   8.60000029E-02  -7.75529549E-16
   8.64999965E-02  -1.15958503E-15
   8.69999975E-02  -1.53190122E-15
   8.74999985E-02  -1.87950174E-15
   8.79999995E-02  -2.18986837E-15
   8.85000005E-02  -2.45150880E-15
   8.90000015E-02  -2.65453455E-15
   8.95000026E-02  -2.79117452E-15
   9.00000036E-02  -2.85625164E-15
   9.04999971E-02  -2.84748972E-15
   9.09999982E-02  -2.76576120E-15
   9.14999992E-02  -2.61513143E-15
   9.20000002E-02  -2.40276206E-15
   9.25000012E-02  -2.13859895E-15
   9.30000022E-02  -1.83493319E-15
   9.35000032E-02  -1.50573627E-15
   9.39999968E-02  -1.16588802E-15
   9.44999978E-02  -8.30263336E-16
   9.49999988E-02  -5.12738477E-16
   9.54999998E-02  -2.25180453E-16
   9.60000008E-02   2.35597648E-17
   9.65000018E-02   2.28555800E-16
   9.70000029E-02   3.89558102E-16
   9.74999964E-02   5.11569995E-16
   9.79999974E-02   6.05124890E-16
   9.84999985E-02   6.86270329E-16
   9.89999995E-02   7.76178006E-16
   9.95000005E-02   9.00403858E-16
  0.100000001       1.08773928E-15
  0.100500003       1.36871546E-15
  0.101000004       1.77374321E-15
  0.101499997       2.33099761E-15
  0.101999998       3.06410463E-15
  0.102499999       3.98969459E-15
  0.103000000       5.11501428E-15
  0.103500001       6.43562504E-15
  0.104000002       7.93343764E-15
  0.104500003       9.57512302E-15
  0.104999997       1.13111086E-14
  0.105499998       1.30752376E-14
  0.105999999       1.47852532E-14
  0.106500000       1.63441241E-14
  0.107000001       1.76423173E-14
  0.107500002       1.85610465E-14
  0.108000003       1.89763485E-14
  0.108499996       1.87641328E-14
  0.108999997       1.78057828E-14
  0.109499998       1.59945231E-14
  0.109999999       1.32418854E-14
  0.110500000       9.48445322E-15
  0.111000001       4.69027850E-15
  0.111500002      -1.13508768E-15
  0.112000003      -7.94353173E-15
  0.112499997      -1.56403753E-14
  0.112999998      -2.40817684E-14
  0.113499999      -3.30739769E-14
  0.114000000      -4.23743919E-14
  0.114500001      -5.16948104E-14
  0.115000002      -6.07070343E-14
  0.115500003      -6.90502953E-14
  0.115999997      -7.63412499E-14
  0.116499998      -8.21858044E-14
  0.116999999      -8.61926497E-14
  0.117500000      -8.79881563E-14
  0.118000001      -8.72320675E-14
  0.118500002      -8.36336412E-14
  0.119000003      -7.69678104E-14
  0.119499996      -6.70899764E-14
  0.119999997      -5.39498154E-14
  0.120499998      -3.76023336E-14
  0.120999999      -1.82166904E-14
  0.121500000       3.91842989E-15
  0.122000001       2.83939725E-14
  0.122500002       5.46828885E-14
  0.123000003       8.21474304E-14
  0.123499997       1.10051535E-13
  0.123999998       1.37576447E-13
  0.124499999       1.63841895E-13
  0.125000000       1.87930509E-13
  0.125499994       2.08914442E-13
  0.126000002       2.25886692E-13
  0.126499996       2.37991674E-13
  0.127000004       2.44457856E-13
  0.127499998       2.44628780E-13
  0.128000006       2.37993192E-13
  0.128500000       2.24211044E-13
  0.128999993       2.03137068E-13
  0.129500002       1.74837683E-13
  0.129999995       1.39602956E-13
  0.130500004       9.79510865E-14
  0.130999997       5.06259565E-14
  0.131500006      -1.41334054E-15
  0.131999999      -5.70097558E-14
  0.132499993      -1.14834574E-13
  0.133000001      -1.73419330E-13
  0.133499995      -2.31193835E-13
  0.134000003      -2.86530700E-13
  0.134499997      -3.37792863E-13
  0.135000005      -3.83382426E-13
  0.135499999      -4.21792917E-13
  0.136000007      -4.51655911E-13
  0.136500001      -4.71792364E-13
  0.136999995      -4.81252191E-13
  0.137500003      -4.79349579E-13
  0.137999997      -4.65695895E-13
  0.138500005      -4.40217063E-13
  0.138999999      -4.03163858E-13
  0.139500007      -3.55114186E-13
  0.140000001      -2.96960698E-13
  0.140499994      -2.29890786E-13
  0.141000003      -1.55356901E-13
  0.141499996      -7.50347389E-14
  0.142000005       9.22270310E-15
  0.142499998       9.54388207E-14
  0.143000007       1.81574509E-13
  0.143500000       2.65583806E-13
  0.143999994       3.45478339E-13
  0.144500002       4.19385636E-13
  0.144999996       4.85601793E-13
  0.145500004       5.42640965E-13
  0.145999998       5.89272880E-13
  0.146500006       6.24564257E-13
  0.147000000       6.47881542E-13
  0.147499993       6.58913787E-13
  0.148000002       6.57660178E-13
  0.148499995       6.44427274E-13
  0.149000004       6.19787479E-13
  0.149499997       5.84557739E-13
  0.150000006       5.39756011E-13
  0.150500000       4.86543260E-13
  0.150999993       4.26183096E-13
  0.151500002       3.59977727E-13
  0.151999995       2.89229849E-13
  0.152500004       2.15179911E-13
  0.152999997       1.38973929E-13
  0.153500006       6.16293515E-14
  0.153999999      -1.59835168E-14
  0.154499993      -9.31717675E-14
  0.155000001      -1.69393105E-13
  0.155499995      -2.44260151E-13
  0.156000003      -3.17510856E-13
  0.156499997      -3.88974118E-13
  0.157000005      -4.58525308E-13
  0.157499999      -5.26034132E-13
  0.158000007      -5.91318498E-13
  0.158500001      -6.54078191E-13
  0.158999994      -7.13862834E-13
  0.159500003      -7.70003636E-13
  0.159999996      -8.21612038E-13
  0.160500005      -8.67522796E-13
  0.160999998      -9.06324440E-13
  0.161500007      -9.36347245E-13
  0.162000000      -9.55721179E-13
  0.162499994      -9.62408321E-13
  0.163000003      -9.54296104E-13
  0.163499996      -9.29275645E-13
  0.164000005      -8.85358464E-13
  0.164499998      -8.20792869E-13
  0.165000007      -7.34191625E-13
  0.165500000      -6.24660859E-13
  0.165999994      -4.91935485E-13
  0.166500002      -3.36476100E-13
  0.166999996      -1.59583921E-13
  0.167500004       3.65398053E-14
  0.167999998       2.48732892E-13
  0.168500006       4.72876404E-13
  0.169000000       7.03918260E-13
  0.169499993       9.35946307E-13
  0.170000002       1.16230647E-12
  0.170499995       1.37576311E-12
  0.171000004       1.56871066E-12
  0.171499997       1.73340660E-12
  0.172000006       1.86224235E-12
  0.172499999       1.94806150E-12
  0.172999993       1.98445188E-12
  0.173500001       1.96610154E-12
  0.173999995       1.88905076E-12
  0.174500003       1.75105102E-12
  0.174999997       1.55175037E-12
  0.175500005       1.29297994E-12
  0.175999999       9.78814794E-13
  0.176499993       6.15723401E-13
  0.177000001       2.12521502E-13
  0.177499995      -2.19735485E-13
  0.178000003      -6.67906756E-13
  0.178499997      -1.11707117E-12
  0.179000005      -1.55091792E-12
  0.179499999      -1.95212748E-12
  0.180000007      -2.30313294E-12
  0.180500001      -2.58644386E-12
  0.180999994      -2.78557732E-12
  0.181500003      -2.88546249E-12
  0.181999996      -2.87349181E-12
  0.182500005      -2.73987040E-12
  0.182999998      -2.47841006E-12
  0.183500007      -2.08706858E-12
  0.184000000      -1.56844980E-12
  0.184499994      -9.30049874E-13
  0.185000002      -1.84642788E-13
  0.185499996       6.49956163E-13
  0.186000004       1.55075833E-12
  0.186499998       2.49014091E-12
  0.187000006       3.43622938E-12
  0.187500000       4.35368365E-12
  0.187999994       5.20467697E-12
  0.188500002       5.94969386E-12
  0.188999996       6.54910761E-12
  0.189500004       6.96430370E-12
  0.189999998       7.15902381E-12
  0.190500006       7.10108448E-12
  0.191000000       6.76349428E-12
  0.191499993       6.12619287E-12
  0.192000002       5.17698037E-12
  0.192499995       3.91303266E-12
  0.193000004       2.34153062E-12
  0.193499997       4.80586111E-13
  0.194000006      -1.64040114E-12
  0.194499999      -3.98098611E-12
  0.194999993      -6.48938151E-12
  0.195500001      -9.10333267E-12
  0.195999995      -1.17515719E-11
  0.196500003      -1.43543545E-11
  0.196999997      -1.68261429E-11
  0.197500005      -1.90766968E-11
  0.197999999      -2.10143760E-11
  0.198500007      -2.25478611E-11
  0.199000001      -2.35896649E-11
  0.199499995      -2.40587220E-11
  0.200000003      -2.38828419E-11
  0.200499997      -2.30025634E-11
  0.201000005      -2.13729191E-11
  0.201499999      -1.89663615E-11
  0.202000007      -1.57749300E-11
  0.202500001      -1.18114173E-11
  0.202999994      -7.11133019E-12
  0.203500003      -1.73345149E-12
  0.203999996       4.24046475E-12
  0.204500005       1.07051529E-11
  0.204999998       1.75344930E-11
  0.205500007       2.45824593E-11
  0.206000000       3.16865596E-11
  0.206499994       3.86690784E-11
  0.207000002       4.53423896E-11
  0.207499996       5.15133457E-11
  0.208000004       5.69864295E-11
  0.208499998       6.15704640E-11
  0.209000006       6.50829321E-11
  0.209500000       6.73543027E-11
  0.209999993       6.82352785E-11
  0.210500002       6.75995371E-11
  0.210999995       6.53499269E-11
  0.211500004       6.14215623E-11
  0.211999997       5.57869168E-11
  0.212500006       4.84552572E-11
  0.213000000       3.94790554E-11
  0.213499993       2.89512182E-11
  0.214000002       1.70066773E-11
  0.214499995       3.82146008E-12
  0.215000004      -1.03885667E-11
  0.215499997      -2.53743623E-11
  0.216000006      -4.08540320E-11
  0.216499999      -5.65185121E-11
  0.216999993      -7.20392079E-11
  0.217500001      -8.70755343E-11
  0.217999995      -1.01276418E-10
  0.218500003      -1.14295497E-10
  0.218999997      -1.25794292E-10
  0.219500005      -1.35453010E-10
  0.219999999      -1.42974327E-10
  0.220500007      -1.48095508E-10
  0.221000001      -1.50595592E-10
  0.221499994      -1.50295457E-10
  0.222000003      -1.47075768E-10
  0.222499996      -1.40866471E-10
  0.223000005      -1.31661515E-10
  0.223499998      -1.19518007E-10
  0.224000007      -1.04553255E-10
  0.224500000      -8.69527922E-11
  0.224999994      -6.69567110E-11
  0.225500003      -4.48645739E-11
  0.225999996      -2.10329028E-11
  0.226500005       4.14162064E-12
  0.226999998       3.02192334E-11
  0.227500007       5.67296245E-11
  0.228000000       8.31815172E-11
  0.228499994       1.09068934E-10
  0.229000002       1.33886069E-10
  0.229499996       1.57137331E-10
  0.230000004       1.78343618E-10
  0.230499998       1.97056288E-10
  0.231000006       2.12864476E-10
  0.231500000       2.25411717E-10
  0.231999993       2.34394171E-10
  0.232500002       2.39573417E-10
  0.232999995       2.40784531E-10
  0.233500004       2.37934311E-10
  0.233999997       2.31013556E-10
  0.234500006       2.20088073E-10
  0.234999999       2.05305925E-10
  0.235499993       1.86898400E-10
  0.236000001       1.65170058E-10
  0.236499995       1.40485207E-10
  0.237000003       1.13291029E-10
  0.237499997       8.40802358E-11
  0.238000005       5.33866146E-11
  0.238499999       2.17948402E-11
  0.238999993      -1.00978653E-11
  0.239500001      -4.16763950E-11
  0.239999995      -7.23256385E-11
  0.240500003      -1.01433549E-10
  0.240999997      -1.28440161E-10
  0.241500005      -1.52783480E-10
  0.241999999      -1.73988240E-10
  0.242500007      -1.91624855E-10
  0.243000001      -2.05319373E-10
  0.243499994      -2.14813056E-10
  0.244000003      -2.19902138E-10
  0.244499996      -2.20496441E-10
  0.245000005      -2.16595367E-10
  0.245499998      -2.08306011E-10
  0.246000007      -1.95830949E-10
  0.246500000      -1.79481582E-10
  0.246999994      -1.59654887E-10
  0.247500002      -1.36847964E-10
  0.247999996      -1.11630073E-10
  0.248500004      -8.46548942E-11
  0.248999998      -5.66389678E-11
  0.249500006      -2.83273422E-11
  0.250000000      -5.23286872E-13
  0.250499994       2.59638196E-11
  0.250999987       5.03365301E-11
  0.251500010       7.17902682E-11
  0.252000004       8.95779562E-11
  0.252499998       1.02998533E-10
  0.252999991       1.11438185E-10
  0.253500015       1.14365108E-10
  0.254000008       1.11347917E-10
  0.254500002       1.02094201E-10
  0.254999995       8.64409933E-11
  0.255499989       6.43747625E-11
  0.256000012       3.60468391E-11
  0.256500006       1.77707989E-12
  0.256999999      -3.79746790E-11
  0.257499993      -8.25140165E-11
  0.257999986      -1.31081326E-10
  0.258500010      -1.82696386E-10
  0.259000003      -2.36250935E-10
  0.259499997      -2.90489993E-10
  0.259999990      -3.44074796E-10
  0.260500014      -3.95572297E-10
  0.261000007      -4.43502818E-10
  0.261500001      -4.86326146E-10
  0.261999995      -5.22519694E-10
  0.262499988      -5.50586299E-10
  0.263000011      -5.69112590E-10
  0.263500005      -5.76761083E-10
  0.263999999      -5.72372205E-10
  0.264499992      -5.54928548E-10
  0.264999986      -5.23603494E-10
  0.265500009      -4.77884898E-10
  0.266000003      -4.17439749E-10
  0.266499996      -3.42282008E-10
  0.266999990      -2.52722537E-10
  0.267500013      -1.49367838E-10
  0.268000007      -3.31830258E-11
  0.268500000       9.45339015E-11
  0.268999994       2.32186881E-10
  0.269499987       3.77848058E-10
  0.270000011       5.29315425E-10
  0.270500004       6.84092560E-10
  0.270999998       8.39505243E-10
  0.271499991       9.92665283E-10
  0.272000015       1.14059340E-09
  0.272500008       1.28013689E-09
  0.273000002       1.40825407E-09
  0.273499995       1.52190394E-09
  0.273999989       1.61806246E-09
  0.274500012       1.69404546E-09
  0.275000006       1.74729164E-09
  0.275500000       1.77558979E-09
  0.275999993       1.77711490E-09
  0.276499987       1.75041381E-09
  0.277000010       1.69465331E-09
  0.277500004       1.60925795E-09
  0.277999997       1.49451429E-09
  0.278499991       1.35110456E-09
  0.279000014       1.18026044E-09
  0.279500008       9.83970350E-10
  0.280000001       7.64606545E-10
  0.280499995       5.25326505E-10
  0.280999988       2.69580636E-10
  0.281500012       1.35041772E-12
  0.282000005      -2.74912454E-10
  0.282499999      -5.54565338E-10
  0.282999992      -8.32625691E-10
  0.283499986      -1.10398057E-09
  0.284000009      -1.36349820E-09
  0.284500003      -1.60612634E-09
  0.284999996      -1.82692894E-09
  0.285499990      -2.02122608E-09
  0.286000013      -2.18485940E-09
  0.286500007      -2.31399677E-09
  0.287000000      -2.40546649E-09
  0.287499994      -2.45670795E-09
  0.287999988      -2.46601650E-09
  0.288500011      -2.43233989E-09
  0.289000005      -2.35559661E-09
  0.289499998      -2.23658514E-09
  0.289999992      -2.07687045E-09
  0.290499985      -1.87910620E-09
  0.291000009      -1.64665059E-09
  0.291500002      -1.38379053E-09
  0.291999996      -1.09543563E-09
  0.292499989      -7.87231891E-10
  0.293000013      -4.65538330E-10
  0.293500006      -1.36934117E-10
  0.294000000       1.91370503E-10
  0.294499993       5.12236753E-10
  0.294999987       8.18441648E-10
  0.295500010       1.10285125E-09
  0.296000004       1.35821765E-09
  0.296499997       1.57818203E-09
  0.296999991       1.75694481E-09
  0.297500014       1.88906224E-09
  0.298000008       1.96988692E-09
  0.298500001       1.99631800E-09
  0.298999995       1.96552841E-09
  0.299499989       1.87661509E-09
  0.300000012       1.72913084E-09
  0.300500005       1.52430502E-09
  0.300999999       1.26452193E-09
  0.301499993       9.53404244E-10
  0.301999986       5.95841543E-10
  0.302500010       1.97514907E-10
  0.303000003      -2.34572223E-10
  0.303499997      -6.92531477E-10
  0.303999990      -1.16701238E-09
  0.304500014      -1.64953995E-09
  0.305000007      -2.12999085E-09
  0.305500001      -2.59821320E-09
  0.305999994      -3.04322700E-09
  0.306499988      -3.45538376E-09
  0.307000011      -3.82518373E-09
  0.307500005      -4.14200141E-09
  0.307999998      -4.39832926E-09
  0.308499992      -4.58516203E-09
  0.308999985      -4.69592409E-09
  0.309500009      -4.72458117E-09
  0.310000002      -4.66771422E-09
  0.310499996      -4.52077975E-09
  0.310999990      -4.28389768E-09
  0.311500013      -3.95532718E-09
  0.312000006      -3.53829011E-09
  0.312500000      -3.03559022E-09
  0.312999994      -2.45198617E-09
  0.313499987      -1.79462600E-09
  0.314000010      -1.06988018E-09
  0.314500004      -2.88612217E-10
  0.314999998       5.39510547E-10
  0.315499991       1.40240652E-09
  0.316000015       2.28918862E-09
  0.316500008       3.18426308E-09
  0.317000002       4.07691880E-09
  0.317499995       4.95072383E-09
  0.317999989       5.79402215E-09
  0.318500012       6.59186883E-09
  0.319000006       7.33112948E-09
  0.319499999       7.99861777E-09
  0.319999993       8.58346461E-09
  0.320499986       9.07616737E-09
  0.321000010       9.46658663E-09
  0.321500003       9.74604930E-09
  0.321999997       9.90739135E-09
  0.322499990       9.94801574E-09
  0.323000014       9.86327375E-09
  0.323500007       9.65163061E-09
  0.324000001       9.31667188E-09
  0.324499995       8.85756712E-09
  0.324999988       8.27945801E-09
  0.325500011       7.58763452E-09
  0.326000005       6.79027323E-09
  0.326499999       5.89674354E-09
  0.326999992       4.91922725E-09
  0.327499986       3.86679577E-09
  0.328000009       2.75410716E-09
  0.328500003       1.59172342E-09
  0.328999996       3.96892463E-10
  0.329499990      -8.19209978E-10
  0.330000013      -2.03479078E-09
  0.330500007      -3.24394556E-09
  0.331000000      -4.42573844E-09
  0.331499994      -5.56940227E-09
  0.331999987      -6.65828592E-09
  0.332500011      -7.69080621E-09
  0.333000004      -8.64336336E-09
  0.333499998      -9.51547197E-09
  0.333999991      -1.02921014E-08
  0.334500015      -1.09711760E-08
  0.335000008      -1.15461098E-08
  0.335500002      -1.20188108E-08
  0.335999995      -1.23802764E-08
  0.336499989      -1.26428628E-08
  0.337000012      -1.28010758E-08
  0.337500006      -1.28556552E-08
  0.338000000      -1.28215021E-08
  0.338499993      -1.27068764E-08
  0.338999987      -1.25199708E-08
  0.339500010      -1.22606316E-08
  0.340000004      -1.19491199E-08
  0.340499997      -1.16008714E-08
  0.340999991      -1.12311449E-08
  0.341500014      -1.08527027E-08
  0.342000008      -1.04797628E-08
  0.342500001      -1.01113136E-08
  0.342999995      -9.78969084E-09
  0.343499988      -9.51789314E-09
  0.344000012      -9.30089517E-09
  0.344500005      -9.15929732E-09
  0.344999999      -9.09756892E-09
  0.345499992      -9.13839759E-09
  0.345999986      -9.29094934E-09
  0.346500009      -9.55395407E-09
  0.347000003      -9.93162441E-09
  0.347499996      -1.04437774E-08
  0.347999990      -1.10727552E-08
  0.348500013      -1.18318200E-08
  0.349000007      -1.27434729E-08
  0.349500000      -1.37608502E-08
  0.349999994      -1.49001185E-08
  0.350499988      -1.61647797E-08
  0.351000011      -1.75455224E-08
  0.351500005      -1.90299758E-08
  0.351999998      -2.06068176E-08
  0.352499992      -2.22899033E-08
  0.352999985      -2.40387035E-08
  0.353500009      -2.58527706E-08
  0.354000002      -2.77206311E-08
  0.354499996      -2.96568885E-08
  0.354999989      -3.15958246E-08
  0.355500013      -3.35884103E-08
  0.356000006      -3.55988767E-08
  0.356500000      -3.76108318E-08
  0.356999993      -3.96525870E-08
  0.357499987      -4.16657322E-08
  0.358000010      -4.36806680E-08
  0.358500004      -4.56905376E-08
  0.358999997      -4.76896780E-08
  0.359499991      -4.96754069E-08
  0.360000014      -5.16709697E-08
  0.360500008      -5.36444809E-08
  0.361000001      -5.56105384E-08
  0.361499995      -5.76198111E-08
  0.361999989      -5.95903380E-08
  0.362500012      -6.15918623E-08
  0.363000005      -6.36130579E-08
  0.363499999      -6.56658372E-08
  0.363999993      -6.77555860E-08
  0.364499986      -6.98995635E-08
  0.365000010      -7.21025444E-08
  0.365500003      -7.43287885E-08
  0.365999997      -7.66205801E-08
  0.366499990      -7.90780774E-08
  0.367000014      -8.15630017E-08
  0.367500007      -8.41736778E-08
  0.368000001      -8.68332393E-08
  0.368499994      -8.95947281E-08
  0.368999988      -9.24706498E-08
  0.369500011      -9.54526698E-08
  0.370000005      -9.85538975E-08
  0.370499998      -1.01701623E-07
  0.370999992      -1.04959014E-07
  0.371499985      -1.08217002E-07
  0.372000009      -1.11631159E-07
  0.372500002      -1.15172860E-07
  0.372999996      -1.18762259E-07
  0.373499990      -1.22528078E-07
  0.374000013      -1.26262904E-07
  0.374500006      -1.29954827E-07
  0.375000000      -1.33844622E-07
  0.375499994      -1.37760651E-07
  0.375999987      -1.41668323E-07
  0.376500010      -1.45750050E-07
  0.377000004      -1.49697073E-07
  0.377499998      -1.54010053E-07
  0.377999991      -1.58267028E-07
  0.378500015      -1.62789817E-07
  0.379000008      -1.67031288E-07
  0.379500002      -1.71848541E-07
  0.379999995      -1.76566857E-07
  0.380499989      -1.81536677E-07
  0.381000012      -1.86576855E-07
  0.381500006      -1.91993720E-07
  0.381999999      -1.97365296E-07
  0.382499993      -2.03213688E-07
  0.382999986      -2.08945281E-07
  0.383500010      -2.14371681E-07
  0.384000003      -2.21188074E-07
  0.384499997      -2.27413182E-07
  0.384999990      -2.33995920E-07
  0.385500014      -2.41348744E-07
  0.386000007      -2.48270027E-07
  0.386500001      -2.55665782E-07
  0.386999995      -2.62873186E-07
  0.387499988      -2.70805373E-07
  0.388000011      -2.78928297E-07
  0.388500005      -2.86538608E-07
  0.388999999      -2.94837974E-07
  0.389499992      -3.05140020E-07
  0.389999986      -3.12421349E-07
  0.390500009      -3.21371544E-07
  0.391000003      -3.29430122E-07
  0.391499996      -3.37910649E-07
  0.391999990      -3.45783235E-07
  0.392500013      -3.54318644E-07
  0.393000007      -3.63383322E-07
  0.393500000      -3.70636002E-07
  0.393999994      -3.78060349E-07
  0.394499987      -3.85055529E-07
  0.395000011      -3.89881137E-07
  0.395500004      -3.93066415E-07
  0.395999998      -3.97195834E-07
  0.396499991      -4.02021413E-07
  0.397000015      -4.01396761E-07
  0.397500008      -4.03037092E-07
  0.398000002      -4.00171274E-07
  0.398499995      -3.97644044E-07
  0.398999989      -3.93686321E-07
  0.399500012      -3.88655678E-07
  0.400000006      -3.78465671E-07
  0.400500000      -3.65276350E-07
  0.400999993      -3.50155830E-07
  0.401499987      -3.35717203E-07
  0.402000010      -3.14993855E-07
  0.402500004      -2.90637047E-07
  0.402999997      -2.66160981E-07
  0.403499991      -2.29415903E-07
  0.404000014      -2.00052256E-07
  0.404500008      -1.58066754E-07
  0.405000001      -1.14355089E-07
  0.405499995      -6.51168861E-08
  0.405999988      -1.05857847E-08
  0.406500012       3.95822504E-08
  0.407000005       1.14798553E-07
  0.407499999       1.78723340E-07
  0.407999992       2.67658237E-07
  0.408499986       3.46374520E-07
  0.409000009       4.37884353E-07
  0.409500003       5.41598808E-07
  0.409999996       6.54449479E-07
  0.410499990       7.78446235E-07
  0.411000013       9.04381295E-07
  0.411500007       1.02208617E-06
  0.412000000       1.17304990E-06
  0.412499994       1.34141385E-06
  0.412999988       1.52035830E-06
  0.413500011       1.69424061E-06
  0.414000005       1.89571631E-06
  0.414499998       2.12986470E-06
  0.414999992       2.35439302E-06
  0.415499985       2.58507271E-06
  0.416000009       2.85497663E-06
  0.416500002       3.14201361E-06
  0.416999996       3.43376155E-06
  0.417499989       3.77006540E-06
  0.418000013       4.09716631E-06
  0.418500006       4.46651484E-06
  0.419000000       4.88450996E-06
  0.419499993       5.30426041E-06
  0.419999987       5.71775445E-06
  0.420500010       6.21831896E-06
  0.421000004       6.75483716E-06
  0.421499997       7.28004443E-06
  0.421999991       7.85560678E-06
  0.422500014       8.49094340E-06
  0.423000008       9.16179670E-06
  0.423500001       9.87113981E-06
  0.423999995       1.06237412E-05
  0.424499989       1.14291379E-05
  0.425000012       1.23056034E-05
  0.425500005       1.32061004E-05
  0.425999999       1.42371373E-05
  0.426499993       1.52386483E-05
  0.426999986       1.62886045E-05
  0.427500010       1.74749766E-05
  0.428000003       1.87066653E-05