   0.00000000       0.00000000    
   5.00000024E-04   0.00000000    
   1.00000005E-03   0.00000000    
   1.50000001E-03   5.52557683E-18
   2.00000009E-03   4.50235565E-17
   2.49999994E-03   1.92326494E-16
   3.00000003E-03   5.69516684E-16
   3.50000011E-03   1.28905667E-15
   4.00000019E-03   2.28584059E-15
   4.49999981E-03   2.99607920E-15
   4.99999989E-03   1.86464351E-15
   5.49999997E-03  -4.29389080E-15
   6.00000005E-03  -2.09965390E-14
   6.50000013E-03  -5.67060776E-14
   7.00000022E-03  -1.23148453E-13
   7.49999983E-03  -2.35083220E-13
   8.00000038E-03  -4.09270708E-13
   8.50000046E-03  -6.62420368E-13
   8.99999961E-03  -1.00800022E-12
   9.49999969E-03  -1.45193753E-12
   9.99999978E-03  -1.98744059E-12
   1.04999999E-02  -2.58939701E-12
   1.09999999E-02  -3.20903829E-12
   1.15000000E-02  -3.76976488E-12
   1.20000001E-02  -4.16515824E-12
   1.25000002E-02  -4.26025274E-12
   1.30000003E-02  -3.89702853E-12
   1.35000004E-02  -2.90485843E-12
   1.40000004E-02  -1.11621151E-12
   1.44999996E-02   1.61261824E-12
   1.49999997E-02   5.37666569E-12
   1.54999997E-02   1.01949621E-11
   1.60000008E-02   1.59830604E-11
   1.64999999E-02   2.25283594E-11
   1.70000009E-02   2.94716612E-11
   1.75000001E-02   3.62984746E-11
   1.79999992E-02   4.23434829E-11
   1.85000002E-02   4.68110030E-11
   1.89999994E-02   4.88132590E-11
   1.95000004E-02   4.74270276E-11
   1.99999996E-02   4.17674194E-11
   2.05000006E-02   3.10758329E-11
   2.09999997E-02   1.48170677E-11
   2.15000007E-02  -7.22124400E-12
   2.19999999E-02  -3.48351938E-11
   2.25000009E-02  -6.73265402E-11
   2.30000000E-02  -1.03449790E-10
   2.34999992E-02  -1.41393702E-10
   2.40000002E-02  -1.78805193E-10
   2.44999994E-02  -2.12861423E-10
   2.50000004E-02  -2.40392567E-10
   2.54999995E-02  -2.58054356E-10
   2.60000005E-02  -2.62544680E-10
   2.64999997E-02  -2.50854809E-10
   2.70000007E-02  -2.20540808E-10
   2.74999999E-02  -1.69997696E-10
   2.80000009E-02  -9.87156468E-11
   2.85000000E-02  -7.49636637E-12
   2.89999992E-02   1.01392277E-10
   2.95000002E-02   2.24143482E-10
   2.99999993E-02   3.55437013E-10
   3.05000003E-02   4.88574181E-10
   3.09999995E-02   6.15726470E-10
   3.15000005E-02   7.28295035E-10
   3.20000015E-02   8.17367785E-10
   3.24999988E-02   8.74254669E-10
   3.29999998E-02   8.91072383E-10
   3.35000008E-02   8.61343552E-10
   3.40000018E-02   7.80570497E-10
   3.44999991E-02   6.46742659E-10
   3.50000001E-02   4.60735894E-10
   3.55000012E-02   2.26566613E-10
   3.59999985E-02  -4.85296525E-11
   3.64999995E-02  -3.54216517E-10
   3.70000005E-02  -6.77380985E-10
   3.75000015E-02  -1.00265962E-09
   3.79999988E-02  -1.31314837E-09
   3.84999998E-02  -1.59126390E-09
   3.90000008E-02  -1.81971127E-09
   3.95000018E-02  -1.98250438E-09
   3.99999991E-02  -2.06597406E-09
   4.05000001E-02  -2.05970374E-09
   4.10000011E-02  -1.95732186E-09
   4.14999984E-02  -1.75709913E-09
   4.19999994E-02  -1.46229695E-09
   4.25000004E-02  -1.08123765E-09
   4.30000015E-02  -6.27074948E-10
   4.34999987E-02  -1.17270735E-10
   4.39999998E-02   4.27203634E-10
   4.45000008E-02   9.82896764E-10
   4.50000018E-02   1.52508217E-09
   4.54999991E-02   2.02906603E-09
   4.60000001E-02   2.47151566E-09
   4.65000011E-02   2.83172796E-09
   4.69999984E-02   3.09274983E-09
   4.74999994E-02   3.24228311E-09
   4.80000004E-02   3.27330874E-09
   4.85000014E-02   3.18439275E-09
   4.89999987E-02   2.97964853E-09
   4.94999997E-02   2.66836575E-09
   5.00000007E-02   2.26432983E-09
   5.05000018E-02   1.78488291E-09
   5.09999990E-02   1.24979760E-09
   5.15000001E-02   6.80044798E-10
   5.20000011E-02   9.65482763E-11
   5.24999984E-02  -4.80981699E-10
   5.29999994E-02  -1.03504982E-09
   5.35000004E-02  -1.55113933E-09
   5.40000014E-02  -2.01818184E-09
   5.44999987E-02  -2.42870968E-09
   5.49999997E-02  -2.77868129E-09
   5.55000007E-02  -3.06700931E-09
   5.60000017E-02  -3.29484084E-09
   5.64999990E-02  -3.46466700E-09
   5.70000000E-02  -3.57934815E-09
   5.75000010E-02  -3.64116293E-09
   5.79999983E-02  -3.65097708E-09
   5.84999993E-02  -3.60763330E-09
   5.90000004E-02  -3.50763796E-09
   5.95000014E-02  -3.34519989E-09
   5.99999987E-02  -3.11264570E-09
   6.04999997E-02  -2.80120549E-09
   6.10000007E-02  -2.40212294E-09
   6.15000017E-02  -1.90800886E-09
   6.19999990E-02  -1.31433464E-09
   6.25000000E-02  -6.20933860E-10
   6.30000010E-02   1.66631778E-10
   6.35000020E-02   1.03598419E-09
   6.40000030E-02   1.96725369E-09
   6.44999966E-02   2.93293057E-09
   6.49999976E-02   3.89831989E-09
   6.54999986E-02   4.82263429E-09
   6.59999996E-02   5.66072611E-09
   6.65000007E-02   6.36537489E-09
   6.70000017E-02   6.89004231E-09
   6.75000027E-02   7.19191595E-09
   6.80000037E-02   7.23506322E-09
   6.84999973E-02   6.99346447E-09
   6.89999983E-02   6.45370868E-09
   6.94999993E-02   5.61711744E-09
   7.00000003E-02   4.50111326E-09
   7.05000013E-02   3.13965587E-09
   7.10000023E-02   1.58265834E-09
   7.15000033E-02  -1.05666816E-10
   7.19999969E-02  -1.84949644E-09
   7.24999979E-02  -3.56501295E-09
   7.29999989E-02  -5.16477439E-09
   7.34999999E-02  -6.56259447E-09
   7.40000010E-02  -7.67864705E-09
   7.45000020E-02  -8.44447445E-09
   7.50000030E-02  -8.80756623E-09
   7.54999965E-02  -8.73519657E-09
   7.59999976E-02  -8.21722246E-09
   7.64999986E-02  -7.26762872E-09
   7.69999996E-02  -5.92465721E-09
   7.75000006E-02  -4.24945634E-09
   7.80000016E-02  -2.32328001E-09
   7.85000026E-02  -2.43365800E-10
   7.90000036E-02   1.88228833E-09
   7.94999972E-02   3.94094402E-09
   7.99999982E-02   5.82157433E-09
   8.04999992E-02   7.42134443E-09
   8.10000002E-02   8.65169625E-09
   8.15000013E-02   9.44363521E-09
   8.20000023E-02   9.75187220E-09
   8.25000033E-02   9.55750057E-09
   8.29999968E-02   8.86905038E-09
   8.34999979E-02   7.72179654E-09
   8.39999989E-02   6.17537488E-09
   8.44999999E-02   4.30983738E-09
   8.50000009E-02   2.22041896E-09
   8.55000019E-02   1.13625524E-11
   8.60000029E-02  -2.21077112E-09
   8.64999965E-02  -4.34383551E-09
   8.69999975E-02  -6.29639496E-09
   8.74999985E-02  -7.99312883E-09
   8.79999995E-02  -9.37894562E-09
   8.85000005E-02  -1.04215081E-08
   8.90000015E-02  -1.11119638E-08
   8.95000026E-02  -1.14638317E-08
   9.00000036E-02  -1.15101129E-08
   9.04999971E-02  -1.12988543E-08
   9.09999982E-02  -1.08874962E-08
   9.14999992E-02  -1.03364624E-08
   9.20000002E-02  -9.70249481E-09
   9.25000012E-02  -9.03231179E-09
   9.30000022E-02  -8.35711411E-09
   9.35000032E-02  -7.68846942E-09
   9.39999968E-02  -7.01595715E-09
   9.44999978E-02  -6.30689279E-09
   9.49999988E-02  -5.50824675E-09
   9.54999998E-02  -4.55074112E-09
   9.60000008E-02  -3.35490147E-09
   9.65000018E-02  -1.83869941E-09
   9.70000029E-02   7.37469183E-11
   9.74999964E-02   2.44306109E-09
   9.79999974E-02   5.30579802E-09
   9.84999985E-02   8.66668781E-09
   9.89999995E-02   1.24926327E-08
   9.95000005E-02   1.67090981E-08
  0.100000001       2.11994013E-08
  0.100500003       2.58071875E-08
  0.101000004       3.03422212E-08
  0.101499997       3.45893412E-08
  0.101999998       3.83202021E-08
  0.102499999       4.13072208E-08
  0.103000000       4.33388756E-08
  0.103500001       4.42354526E-08
  0.104000002       4.38641905E-08
  0.104500003       4.21526352E-08
  0.104999997       3.90993051E-08
  0.105499998       3.47806157E-08
  0.105999999       2.93534015E-08
  0.106500000       2.30525128E-08
  0.107000001       1.61832681E-08
  0.107500002       9.10893672E-09
  0.108000003       2.23370233E-09
  0.108499996      -4.01813249E-09
  0.108999997      -9.22556609E-09
  0.109499998      -1.29956490E-08
  0.109999999      -1.49881192E-08
  0.110500000      -1.49383066E-08
  0.111000001      -1.26768249E-08
  0.111500002      -8.14460410E-09
  0.112000003      -1.40206236E-09
  0.112499997       7.36845207E-09
  0.112999998       1.78674746E-08
  0.113499999       2.96905966E-08
  0.114000000       4.23475797E-08
  0.114500001       5.52877388E-08
  0.115000002       6.79301735E-08
  0.115500003       7.96974149E-08
  0.115999997       9.00504844E-08
  0.116499998       9.85234436E-08
  0.116999999       1.04755244E-07
  0.117500000       1.08516836E-07
  0.118000001       1.09731737E-07
  0.118500002       1.08488514E-07
  0.119000003       1.05044137E-07
  0.119499996       9.98176191E-08
  0.119999997       9.33738207E-08
  0.120499998       8.63980247E-08
  0.120999999       7.96625912E-08
  0.121500000       7.39870387E-08
  0.122000001       7.01939911E-08
  0.122500002       6.90630344E-08
  0.123000003       7.12854771E-08
  0.123499997       7.74226052E-08
  0.123999998       8.78697080E-08
  0.124499999       1.02828594E-07
  0.125000000       1.22290402E-07
  0.125499994       1.46029720E-07
  0.126000002       1.73610914E-07
  0.126499996       2.04407172E-07
  0.127000004       2.37630815E-07
  0.127499998       2.72373939E-07
  0.128000006       3.07657245E-07
  0.128500000       3.42484583E-07
  0.128999993       3.75900129E-07
  0.129500002       4.07045263E-07
  0.129999995       4.35211803E-07
  0.130500004       4.59888298E-07
  0.130999997       4.80796814E-07
  0.131500006       4.97918109E-07
  0.131999999       5.11502890E-07
  0.132499993       5.22069001E-07
  0.133000001       5.30383886E-07
  0.133499995       5.37433323E-07
  0.134000003       5.44377940E-07
  0.134499997       5.52498875E-07
  0.135000005       5.63137746E-07
  0.135499999       5.77630772E-07
  0.136000007       5.97243911E-07
  0.136500001       6.23111532E-07
  0.136999995       6.56180873E-07
  0.137500003       6.97167650E-07
  0.137999997       7.46523654E-07
  0.138500005       8.04419926E-07
  0.138999999       8.70745737E-07
  0.139500007       9.45122622E-07
  0.140000001       1.02693525E-06
  0.140499994       1.11537656E-06
  0.141000003       1.20950335E-06
  0.141499996       1.30830006E-06
  0.142000005       1.41074872E-06
  0.142499998       1.51590075E-06
  0.143000007       1.62294396E-06
  0.143500000       1.73126296E-06
  0.143999994       1.84049122E-06
  0.144500002       1.95054758E-06
  0.144999996       2.06165851E-06
  0.145500004       2.17436286E-06
  0.145999998       2.28950057E-06
  0.146500006       2.40818440E-06
  0.147000000       2.53175654E-06
  0.147499993       2.66173083E-06
  0.148000002       2.79972960E-06
  0.148499995       2.94741199E-06
  0.149000004       3.10640166E-06
  0.149499997       3.27822113E-06
  0.150000006       3.46422394E-06
  0.150500000       3.66554673E-06
  0.150999993       3.88307308E-06
  0.151500002       4.11740939E-06
  0.151999995       4.36888149E-06
  0.152500004       4.63755077E-06
  0.152999997       4.92324625E-06
  0.153500006       5.22561049E-06
  0.153999999       5.54416556E-06
  0.154499993       5.87837758E-06
  0.155000001       6.22774223E-06
  0.155499995       6.59185798E-06
  0.156000003       6.97050245E-06
  0.156499997       7.36370612E-06
  0.157000005       7.77180776E-06
  0.157499999       8.19549587E-06
  0.158000007       8.63583955E-06
  0.158500001       9.09429673E-06
  0.158999994       9.57269731E-06
  0.159500003       1.00732195E-05
  0.159999996       1.05983409E-05
  0.160500005       1.11507825E-05
  0.160999998       1.17334357E-05
  0.161500007       1.23492819E-05
  0.162000000       1.30013150E-05
  0.162499994       1.36924618E-05
  0.163000003       1.44255191E-05
  0.163499996       1.52030861E-05
  0.164000005       1.60275231E-05
  0.164499998       1.69009290E-05
  0.165000007       1.78251230E-05
  0.165500000       1.88016547E-05
  0.165999994       1.98318558E-05
  0.166500002       2.09168720E-05
  0.166999996       2.20577440E-05
  0.167500004       2.32554576E-05
  0.167999998       2.45110423E-05
  0.168500006       2.58256568E-05
  0.169000000       2.72006764E-05
  0.169499993       2.86377654E-05
  0.170000002       3.01389646E-05
  0.170499995       3.17067461E-05
  0.171000004       3.33440294E-05
  0.171499997       3.50542068E-05
  0.172000006       3.68411747E-05
  0.172499999       3.87092914E-05
  0.172999993       4.06633590E-05
  0.173500001       4.27085470E-05
  0.173999995       4.48503597E-05
  0.174500003       4.70945488E-05
  0.174999997       4.94470551E-05
  0.175500005       5.19139430E-05
  0.175999999       5.45012917E-05
  0.176499993       5.72151730E-05
  0.177000001       6.00616040E-05
  0.177499995       6.30465074E-05
  0.178000003       6.61757294E-05
  0.178499997       6.94549817E-05
  0.179000005       7.28899322E-05
  0.179499999       7.64862052E-05
  0.180000007       8.02494469E-05
  0.180500001       8.41854126E-05
  0.180999994       8.82999811E-05
  0.181500003       9.25993008E-05
  0.181999996       9.70898400E-05
  0.182500005       1.01778423E-04
  0.182999998       1.06672342E-04
  0.183500007       1.11779416E-04
  0.184000000       1.17107986E-04
  0.184499994       1.22666941E-04
  0.185000002       1.28465777E-04
  0.185499996       1.34514616E-04
  0.186000004       1.40824079E-04
  0.186499998       1.47405386E-04
  0.187000006       1.54270194E-04
  0.187500000       1.61430595E-04
  0.187999994       1.68899147E-04
  0.188500002       1.76688685E-04
  0.188999996       1.84812394E-04
  0.189500004       1.93283820E-04
  0.189999998       2.02116702E-04
  0.190500006       2.11325008E-04
  0.191000000       2.20922957E-04
  0.191499993       2.30925027E-04
  0.192000002       2.41346090E-04
  0.192499995       2.52201251E-04
  0.193000004       2.63505906E-04
  0.193499997       2.75275961E-04
  0.194000006       2.87527801E-04
  0.194499999       3.00278276E-04
  0.194999993       3.13544937E-04
  0.195500001       3.27345741E-04
  0.195999995       3.41699342E-04
  0.196500003       3.56625358E-04
  0.196999997       3.72143899E-04
  0.197500005       3.88275890E-04
  0.197999999       4.05043014E-04
  0.198500007       4.22467710E-04
  0.199000001       4.40573029E-04
  0.199499995       4.59382776E-04
  0.200000003       4.78921284E-04
  0.200499997       4.99213755E-04
  0.201000005       5.20285917E-04
  0.201499999       5.42163965E-04
  0.202000007       5.64874790E-04
  0.202500001       5.88445575E-04
  0.202999994       6.12904259E-04
  0.203500003       6.38279249E-04
  0.203999996       6.64599589E-04
  0.204500005       6.91895024E-04
  0.204999998       7.20195938E-04
  0.205500007       7.49533414E-04
  0.206000000       7.79939233E-04
  0.206499994       8.11445876E-04
  0.207000002       8.44086753E-04
  0.207499996       8.77896266E-04
  0.208000004       9.12909803E-04
  0.208499998       9.49163805E-04
  0.209000006       9.86696105E-04
  0.209500000       1.02554529E-03
  0.209999993       1.06575084E-03
  0.210500002       1.10735372E-03
  0.210999995       1.15039560E-03
  0.211500004       1.19491853E-03
  0.211999997       1.24096603E-03
  0.212500006       1.28858234E-03
  0.213000000       1.33781240E-03
  0.213499993       1.38870243E-03
  0.214000002       1.44129829E-03
  0.214499995       1.49564643E-03
  0.215000004       1.55179435E-03
  0.215499997       1.60979026E-03
  0.216000006       1.66968245E-03
  0.216499999       1.73151935E-03
  0.216999993       1.79534999E-03
  0.217500001       1.86122430E-03
  0.217999995       1.92919257E-03
  0.218500003       1.99930649E-03
  0.218999997       2.07161764E-03
  0.219500005       2.14617816E-03
  0.219999999       2.22304184E-03
  0.220500007       2.30226247E-03
  0.221000001       2.38389568E-03
  0.221499994       2.46799900E-03
  0.222000003       2.55462900E-03
  0.222499996       2.64384318E-03
  0.223000005       2.73570023E-03
  0.223499998       2.83026043E-03
  0.224000007       2.92758457E-03
  0.224500000       3.02773388E-03
  0.224999994       3.13077192E-03
  0.225500003       3.23676015E-03
  0.225999996       3.34576098E-03
  0.226500005       3.45783914E-03
  0.226999998       3.57305724E-03
  0.227500007       3.69147840E-03
  0.228000000       3.81316524E-03
  0.228499994       3.93817993E-03
  0.229000002       4.06658323E-03
  0.229499996       4.19843756E-03
  0.230000004       4.33380296E-03
  0.230499998       4.47273906E-03
  0.231000006       4.61530639E-03
  0.231500000       4.76156315E-03
  0.231999993       4.91156662E-03
  0.232500002       5.06537640E-03
  0.232999995       5.22305071E-03
  0.233500004       5.38464729E-03
  0.233999997       5.55022154E-03
  0.234500006       5.71983121E-03
  0.234999999       5.89353358E-03
  0.235499993       6.07138267E-03
  0.236000001       6.25343295E-03
  0.236499995       6.43973658E-03
  0.237000003       6.63034804E-03
  0.237499997       6.82531949E-03
  0.238000005       7.02470262E-03
  0.238499999       7.22855004E-03
  0.238999993       7.43690878E-03
  0.239500001       7.64982402E-03
  0.239999995       7.86734466E-03
  0.240500003       8.08951352E-03
  0.240999997       8.31636880E-03
  0.241500005       8.54794867E-03
  0.241999999       8.78428761E-03
  0.242500007       9.02541913E-03
  0.243000001       9.27136745E-03
  0.243499994       9.52215679E-03
  0.244000003       9.77780856E-03
  0.244499996       1.00383433E-02
  0.245000005       1.03037739E-02
  0.245499998       1.05741136E-02
  0.246000007       1.08493678E-02
  0.246500000       1.11295367E-02
  0.246999994       1.14146154E-02
  0.247500002       1.17046004E-02
  0.247999996       1.19994804E-02
  0.248500004       1.22992424E-02
  0.248999998       1.26038650E-02
  0.249500006       1.29133211E-02
  0.250000000       1.32275876E-02
  0.250499994       1.35466279E-02
  0.250999987       1.38704022E-02
  0.251500010       1.41988695E-02
  0.252000004       1.45319775E-02
  0.252499998       1.48696750E-02
  0.252999991       1.52119044E-02
  0.253500015       1.55586004E-02
  0.254000008       1.59096904E-02
  0.254500002       1.62650943E-02
  0.254999995       1.66247319E-02
  0.255499989       1.69885140E-02
  0.256000012       1.73563436E-02
  0.256500006       1.77281145E-02
  0.256999999       1.81037243E-02
  0.257499993       1.84830595E-02
  0.257999986       1.88659951E-02
  0.258500010       1.92523785E-02
  0.259000003       1.96420569E-02
  0.259499997       2.00348739E-02
  0.259999990       2.04306655E-02
  0.260500014       2.08292473E-02
  0.261000007       2.12304257E-02
  0.261500001       2.16339976E-02
  0.261999995       2.20397599E-02
  0.262499988       2.24474985E-02
  0.263000011       2.28569768E-02
  0.263500005       2.32679658E-02
  0.263999999       2.36802157E-02
  0.264499992       2.40934771E-02
  0.264999986       2.45074946E-02
  0.265500009       2.49219984E-02
  0.266000003       2.53367126E-02
  0.266499996       2.57513504E-02
  0.266999990       2.61656251E-02
  0.267500013       2.65792385E-02
  0.268000007       2.69918684E-02
  0.268500000       2.74031963E-02
  0.268999994       2.78128833E-02
  0.269499987       2.82205939E-02
  0.270000011       2.86259800E-02
  0.270500004       2.90286597E-02
  0.270999998       2.94282380E-02
  0.271499991       2.98243109E-02
  0.272000015       3.02164741E-02
  0.272500008       3.06043066E-02
  0.273000002       3.09873782E-02
  0.273499995       3.13652344E-02
  0.273999989       3.17374207E-02
  0.274500012       3.21034715E-02
  0.275000006       3.24628949E-02
  0.275500000       3.28152031E-02
  0.275999993       3.31599005E-02
  0.276499987       3.34964618E-02
  0.277000010       3.38243693E-02
  0.277500004       3.41431089E-02
  0.277999997       3.44521403E-02
  0.278499991       3.47509310E-02
  0.279000014       3.50389443E-02
  0.279500008       3.53156142E-02
  0.280000001       3.55803668E-02
  0.280499995       3.58326361E-02
  0.280999988       3.60718481E-02
  0.281500012       3.62974145E-02
  0.282000005       3.65087688E-02
  0.282499999       3.67052965E-02
  0.282999992       3.68863977E-02
  0.283499986       3.70514654E-02
  0.284000009       3.71998772E-02
  0.284500003       3.73310186E-02
  0.284999996       3.74442413E-02
  0.285499990       3.75388972E-02
  0.286000013       3.76143456E-02
  0.286500007       3.76699306E-02
  0.287000000       3.77049893E-02
  0.287499994       3.77188697E-02
  0.287999988       3.77109163E-02
  0.288500011       3.76804508E-02
  0.289000005       3.76268364E-02
  0.289499998       3.75493951E-02
  0.289999992       3.74474376E-02
  0.290499985       3.73203419E-02
  0.291000009       3.71674635E-02
  0.291500002       3.69881205E-02
  0.291999996       3.67816575E-02
  0.292499989       3.65474336E-02
  0.293000013       3.62848081E-02
  0.293500006       3.59931551E-02
  0.294000000       3.56718563E-02
  0.294499993       3.53203118E-02
  0.294999987       3.49378884E-02
  0.295500010       3.45239863E-02
  0.296000004       3.40780728E-02
  0.296499997       3.35995443E-02
  0.296999991       3.30878198E-02
  0.297500014       3.25423665E-02
  0.298000008       3.19626778E-02
  0.298500001       3.13481987E-02
  0.298999995       3.06984149E-02
  0.299499989       3.00128795E-02
  0.300000012       2.92911101E-02
  0.300500005       2.85326075E-02
  0.300999999       2.77369060E-02
  0.301499993       2.69035939E-02
  0.301999986       2.60322448E-02
  0.302500010       2.51224618E-02
  0.303000003       2.41739023E-02
  0.303499997       2.31862627E-02
  0.303999990       2.21592449E-02
  0.304500014       2.10925471E-02
  0.305000007       1.99859217E-02
  0.305500001       1.88391916E-02
  0.305999994       1.76522061E-02
  0.306499988       1.64248049E-02
  0.307000011       1.51568856E-02
  0.307500005       1.38483876E-02
  0.307999998       1.24992570E-02
  0.308499992       1.11094490E-02
  0.308999985       9.67896450E-03
  0.309500009       8.20788089E-03
  0.310000002       6.69626426E-03
  0.310499996       5.14420401E-03
  0.310999990       3.55186523E-03
  0.311500013       1.91942381E-03
  0.312000006       2.47107731E-04
  0.312500000      -1.46487355E-03
  0.312999994      -3.21625662E-03
  0.313499987      -5.00667235E-03
  0.314000010      -6.83573121E-03
  0.314500004      -8.70299339E-03
  0.314999998      -1.06079886E-02
  0.315499991      -1.25501743E-02
  0.316000015      -1.45289451E-02
  0.316500008      -1.65436715E-02
  0.317000002      -1.85935702E-02
  0.317499995      -2.06778292E-02
  0.317999989      -2.27956902E-02
  0.318500012      -2.49463096E-02
  0.319000006      -2.71287505E-02
  0.319499999      -2.93420684E-02
  0.319999993      -3.15852873E-02
  0.320499986      -3.38574089E-02
  0.321000010      -3.61573696E-02
  0.321500003      -3.84840555E-02
  0.321999997      -4.08364013E-02
  0.322499990      -4.32132110E-02
  0.323000014      -4.56132516E-02
  0.323500007      -4.80353348E-02
  0.324000001      -5.04781790E-02
  0.324499995      -5.29404059E-02
  0.324999988      -5.54206073E-02
  0.325500011      -5.79172894E-02
  0.326000005      -6.04289174E-02
  0.326499999      -6.29538670E-02
  0.326999992      -6.54905215E-02
  0.327499986      -6.80371523E-02
  0.328000009      -7.05919713E-02
  0.328500003      -7.31531680E-02
  0.328999996      -7.57188424E-02
  0.329499990      -7.82870576E-02
  0.330000013      -8.08558092E-02
  0.330500007      -8.34230855E-02
  0.331000000      -8.59868228E-02
  0.331499994      -8.85449871E-02
  0.331999987      -9.10954699E-02
  0.332500011      -9.36361700E-02
  0.333000004      -9.61649492E-02
  0.333499998      -9.86797586E-02
  0.333999991     -0.101178549    
  0.334500015     -0.103659153    
  0.335000008     -0.106119439    
  0.335500002     -0.108557217    
  0.335999995     -0.110970303    
  0.336499989     -0.113356493    
  0.337000012     -0.115713559    
  0.337500006     -0.118039250    
  0.338000000     -0.120331235    
  0.338499993     -0.122587129    
  0.338999987     -0.124804571    
  0.339500010     -0.126981139    
  0.340000004     -0.129114360    
  0.340499997     -0.131201774    
  0.340999991     -0.133240864    
  0.341500014     -0.135229155    
  0.342000008     -0.137164161    
  0.342500001     -0.139043406    
  0.342999995     -0.140864432    
  0.343499988     -0.142624751    
  0.344000012     -0.144321978    
  0.344500005     -0.145953715    
  0.344999999     -0.147517666    
  0.345499992     -0.149011552    
  0.345999986     -0.150433183    
  0.346500009     -0.151780456    
  0.347000003     -0.153051302    
  0.347499996     -0.154243648    
  0.347999990     -0.155355483    
  0.348500013     -0.156384870    
  0.349000007     -0.157329887    
  0.349500000     -0.158188626    
  0.349999994     -0.158959240    
  0.350499988     -0.159639925    
  0.351000011     -0.160228893    
  0.351500005     -0.160724401    
  0.351999998     -0.161124647    
  0.352499992     -0.161427900    
  0.352999985     -0.161632448    
  0.353500009     -0.161736697    
  0.354000002     -0.161739066    
  0.354499996     -0.161638007    
  0.354999989     -0.161432058    
  0.355500013     -0.161119848    
  0.356000006     -0.160700157    
  0.356500000     -0.160171807    
  0.356999993     -0.159533724    
  0.357499987     -0.158785045    
  0.358000010     -0.157924935    
  0.358500004     -0.156952709    
  0.358999997     -0.155867755    
  0.359499991     -0.154669687    
  0.360000014     -0.153358206    
  0.360500008     -0.151933059    
  0.361000001     -0.150394201    
  0.361499995     -0.148741677    
  0.361999989     -0.146975622    
  0.362500012     -0.145096242    
  0.363000005     -0.143103853    
  0.363499999     -0.140998945    
  0.363999993     -0.138782039    
  0.364499986     -0.136453688    
  0.365000010     -0.134014606    
  0.365500003     -0.131465659    
  0.365999997     -0.128807724    
  0.366499990     -0.126041815    
  0.367000014     -0.123169020    
  0.367500007     -0.120190531    
  0.368000001     -0.117107779    
  0.368499994     -0.113922186    
  0.368999988     -0.110635333    
  0.369500011     -0.107248969    
  0.370000005     -0.103764869    
  0.370499998     -0.100185007    
  0.370999992      -9.65114608E-02
  0.371499985      -9.27463174E-02
  0.372000009      -8.88918713E-02
  0.372500002      -8.49505886E-02
  0.372999996      -8.09249580E-02
  0.373499990      -7.68175796E-02
  0.374000013      -7.26312473E-02
  0.374500006      -6.83688596E-02
  0.375000000      -6.40334561E-02
  0.375499994      -5.96281514E-02
  0.375999987      -5.51561788E-02
  0.376500010      -5.06208986E-02
  0.377000004      -4.60258052E-02
  0.377499998      -4.13744561E-02
  0.377999991      -3.66705060E-02
  0.378500015      -3.19176875E-02
  0.379000008      -2.71198470E-02
  0.379500002      -2.22808793E-02
  0.379999995      -1.74047090E-02
  0.380499989      -1.24954153E-02
  0.381000012      -7.55709829E-03
  0.381500006      -2.59394292E-03
  0.381999999       2.38978956E-03
  0.382499993       7.38988072E-03
  0.382999986       1.24021247E-02
  0.383500010       1.74222030E-02
  0.384000003       2.24457867E-02
  0.384499997       2.74684951E-02
  0.384999990       3.24859396E-02
  0.385500014       3.74937765E-02
  0.386000007       4.24874462E-02
  0.386500001       4.74624224E-02
  0.386999995       5.24142459E-02
  0.387499988       5.73383048E-02
  0.388000011       6.22300021E-02
  0.388500005       6.70847893E-02
  0.388999999       7.18979388E-02
  0.389499992       7.66646937E-02
  0.389999986       8.13802928E-02
  0.390500009       8.60400572E-02
  0.391000003       9.06392559E-02
  0.391499996       9.51731205E-02
  0.391999990       9.96370539E-02
  0.392500013      0.104026362    
  0.393000007      0.108336441    
  0.393500000      0.112562872    
  0.393999994      0.116701201    
  0.394499987      0.120747142    
  0.395000011      0.124696486    
  0.395500004      0.128544927    
  0.395999998      0.132288367    
  0.396499991      0.135922894    
  0.397000015      0.139444619    
  0.397500008      0.142849922    
  0.398000002      0.146135300    
  0.398499995      0.149297133    
  0.398999989      0.152332067    
  0.399500012      0.155236825    
  0.400000006      0.158008158    
  0.400500000      0.160642967    
  0.400999993      0.163138092    
  0.401499987      0.165490478    
  0.402000010      0.167697251    
  0.402500004      0.169755578    
  0.402999997      0.171662763    
  0.403499991      0.173416197    
  0.404000014      0.175013453    
  0.404500008      0.176452145    
  0.405000001      0.177730143    
  0.405499995      0.178845659    
  0.405999988      0.179796904    
  0.406500012      0.180582300    
  0.407000005      0.181200534    
  0.407499999      0.181650475    
  0.407999992      0.181931257    
  0.408499986      0.182042196    
  0.409000009      0.181982771    
  0.409500003      0.181752637    
  0.409999996      0.181351796    
  0.410499990      0.180780306    
  0.411000013      0.180038437    
  0.411500007      0.179126620    
  0.412000000      0.178045377    
  0.412499994      0.176795393    
  0.412999988      0.175377488    
  0.413500011      0.173792645    
  0.414000005      0.172041923    
  0.414499998      0.170126691    
  0.414999992      0.168048412    
  0.415499985      0.165808663    
  0.416000009      0.163409203    
  0.416500002      0.160851941    
  0.416999996      0.158138901    
  0.417499989      0.155272290    
  0.418000013      0.152254686    
  0.418500006      0.149088800    
  0.419000000      0.145777583    
  0.419499993      0.142324075    
  0.419999987      0.138731673    
  0.420500010      0.135004073    
  0.421000004      0.131145000    
  0.421499997      0.127158523    
  0.421999991      0.123048872    
  0.422500014      0.118820325    
  0.423000008      0.114477344    
  0.423500001      0.110024653    
  0.423999995      0.105467089    
  0.424499989      0.100809462    
  0.425000012       9.60566252E-02
  0.425500005       9.12136212E-02
  0.425999999       8.62854794E-02
  0.426499993       8.12771991E-02
  0.426999986       7.61938691E-02
  0.427500010       7.10407495E-02
  0.428000003       6.58231452E-02