 -0.23999999999999999         -4.4730557139732529E-007
 -0.23949999999999999         -2.9110340861279190E-007
 -0.23899999999999999          3.6106705725068020E-009
 -0.23849999999999999          3.4260665599799541E-007
 -0.23799999999999999          6.1267077540044123E-007
 -0.23749999999999999          7.1494654317055992E-007
 -0.23699999999999999          5.9574917345097542E-007
 -0.23649999999999999          2.6644966871217521E-007
 -0.23599999999999999         -1.9345270477167885E-007
 -0.23549999999999999         -6.5188454778792086E-007
 -0.23499999999999999         -9.5555846668586874E-007
 -0.23449999999999999         -9.7018712826165519E-007
 -0.23399999999999999         -6.2000953601894100E-007
 -0.23349999999999999          8.3344126170478816E-008
 -0.23299999999999998          1.0306647876645835E-006
 -0.23249999999999998          2.0277491651561730E-006
 -0.23199999999999998          2.8297776036697902E-006
 -0.23149999999999998          3.1913834728845728E-006
 -0.23099999999999998          2.9223664743273930E-006
 -0.23049999999999998          1.9370659741709966E-006
 -0.22999999999999998          2.8609882651180047E-007
 -0.22949999999999998         -1.8376520244940998E-006
 -0.22899999999999998         -4.1218629321367773E-006
 -0.22849999999999998         -6.1834997433930112E-006
 -0.22799999999999998         -7.6350004951861697E-006
 -0.22749999999999998         -8.1555498547035920E-006
 -0.22699999999999998         -7.5534547941993440E-006
 -0.22649999999999998         -5.8071186990927976E-006
 -0.22599999999999998         -3.0758828102831459E-006
 -0.22549999999999998          3.2213881683457229E-007
 -0.22499999999999998          3.9617166193246795E-006
 -0.22449999999999998          7.3823233100395256E-006
 -0.22399999999999998          1.0166893622572989E-005
 -0.22349999999999998          1.2012797142573253E-005
 -0.22299999999999998          1.2781992704058084E-005
 -0.22249999999999998          1.2521276792742397E-005
 -0.22199999999999998          1.1449445200017211E-005
 -0.22150000000000000          9.9144329717974974E-006
 -0.22100000000000000          8.3291126818222854E-006
 -0.22050000000000000          7.0981285327611637E-006
 -0.22000000000000000          6.5495155721933224E-006
 -0.21950000000000000          6.8831734454203153E-006
 -0.21900000000000000          8.1446036499158153E-006
 -0.21850000000000000          1.0227296613383939E-005
 -0.21800000000000000          1.2901137087340039E-005
 -0.21750000000000000          1.5859810213781203E-005
 -0.21700000000000000          1.8777068798311059E-005
 -0.21650000000000000          2.1360633109655327E-005
 -0.21600000000000000          2.3394140491951108E-005
 -0.21550000000000000          2.4760880283203718E-005
 -0.21500000000000000          2.5447241039600093E-005
 -0.21450000000000000          2.5527960353300154E-005
 -0.21400000000000000          2.5139186109115794E-005
 -0.21350000000000000          2.4446588917005856E-005
 -0.21299999999999999          2.3616553332258748E-005
 -0.21249999999999999          2.2796318729567780E-005
 -0.21199999999999999          2.2105656261835964E-005
 -0.21149999999999999          2.1640043251836523E-005
 -0.21099999999999999          2.1481699656692696E-005
 -0.21049999999999999          2.1713143531212266E-005
 -0.20999999999999999          2.2427525949110971E-005
 -0.20949999999999999          2.3730804587565008E-005
 -0.20899999999999999          2.5733589308656960E-005
 -0.20849999999999999          2.8532894671269195E-005
 -0.20799999999999999          3.2188787433900932E-005
 -0.20749999999999999          3.6699998700014908E-005
 -0.20699999999999999          4.1985594321028262E-005
 -0.20649999999999999          4.7879634531187685E-005
 -0.20599999999999999          5.4139584188787864E-005
 -0.20549999999999999          6.0471355410230777E-005
 -0.20499999999999999          6.6565938913377558E-005
 -0.20449999999999999          7.2143662126234717E-005
 -0.20399999999999999          7.6997274688024207E-005
 -0.20349999999999999          8.1025599253692286E-005
 -0.20299999999999999          8.4252769504516211E-005
 -0.20249999999999999          8.6829322861443816E-005
 -0.20199999999999999          8.9013491007002970E-005
 -0.20149999999999998          9.1137507467515280E-005
 -0.20099999999999998          9.3565193896575353E-005
 -0.20049999999999998          9.6647141466643600E-005
 -0.19999999999999998          1.0068086563575849E-004
 -0.19949999999999998          1.0588319331807057E-004
 -0.19899999999999998          1.1237702931665374E-004
 -0.19849999999999998          1.2019473890924210E-004
 -0.19799999999999998          1.2929226247532382E-004
 -0.19749999999999998          1.3957390579126823E-004
 -0.19699999999999998          1.5091691870672429E-004
 -0.19649999999999998          1.6319510263756751E-004
 -0.19600000000000001          1.7629452723819800E-004
 -0.19550000000000001          1.9012182061528852E-004
 -0.19500000000000001          2.0460396887230067E-004
 -0.19450000000000001          2.1968302847675365E-004
 -0.19400000000000001          2.3530846827653614E-004
 -0.19350000000000001          2.5143451315050937E-004
 -0.19300000000000000          2.6801735549616447E-004
 -0.19250000000000000          2.8502677819318683E-004
 -0.19200000000000000          3.0245552983588245E-004
 -0.19150000000000000          3.2033384744643606E-004
 -0.19100000000000000          3.3874619041235517E-004
 -0.19050000000000000          3.5783592066603964E-004
 -0.19000000000000000          3.7780985437591821E-004
 -0.18950000000000000          3.9892543538130453E-004
 -0.18900000000000000          4.2147168272053514E-004
 -0.18850000000000000          4.4574825823772487E-004
 -0.18800000000000000          4.7203045218705323E-004
 -0.18750000000000000          5.0054624396656802E-004
 -0.18700000000000000          5.3145935947627066E-004
 -0.18650000000000000          5.6486913950252397E-004
 -0.18600000000000000          6.0080060627387504E-004
 -0.18550000000000000          6.3924259085936137E-004
 -0.18500000000000000          6.8014789330562335E-004
 -0.18450000000000000          7.2347734772681646E-004
 -0.18400000000000000          7.6922174235319264E-004
 -0.18350000000000000          8.1740662270072878E-004
 -0.18300000000000000          8.6811664710617219E-004
 -0.18250000000000000          9.2148676142456815E-004
 -0.18200000000000000          9.7768982428833692E-004
 -0.18149999999999999          1.0369228499813698E-003
 -0.18099999999999999          1.0993889573649139E-003
 -0.18049999999999999          1.1652816854992372E-003
 -0.17999999999999999          1.2347821763840443E-003
 -0.17949999999999999          1.3080526584495784E-003
 -0.17899999999999999          1.3852657669029111E-003
 -0.17849999999999999          1.4665986168345916E-003
 -0.17799999999999999          1.5522657104198173E-003
 -0.17749999999999999          1.6425401519788350E-003
 -0.17699999999999999          1.7377520059700460E-003
 -0.17649999999999999          1.8383107635860964E-003
 -0.17599999999999999          1.9446373206321258E-003
 -0.17549999999999999          2.0572178757564999E-003
 -0.17499999999999999          2.1765212007928297E-003
 -0.17449999999999999          2.3030180672689842E-003
 -0.17399999999999999          2.4371248670757798E-003
 -0.17349999999999999          2.5791961569679818E-003
 -0.17299999999999999          2.7295342423989000E-003
 -0.17249999999999999          2.8883921886893992E-003
 -0.17199999999999999          3.0560134042844599E-003
 -0.17149999999999999          3.2326402605113913E-003
 -0.17099999999999999          3.4185500603931170E-003
 -0.17049999999999998          3.6140884581500089E-003
 -0.16999999999999998          3.8197081863044491E-003
 -0.16949999999999998          4.0359457255671844E-003
 -0.16899999999999998          4.2634533406570654E-003
 -0.16849999999999998          4.5029388337979844E-003
 -0.16799999999999998          4.7552074435198589E-003
 -0.16749999999999998          5.0210504807684953E-003
 -0.16699999999999998          5.3013042625087523E-003
 -0.16649999999999998          5.5967372211993428E-003
 -0.16599999999999998          5.9081276565767504E-003
 -0.16549999999999998          6.2362344697940997E-003
 -0.16499999999999998          6.5817400511637616E-003
 -0.16449999999999998          6.9453787944915493E-003
 -0.16399999999999998          7.3279298949209155E-003
 -0.16349999999999998          7.7302102690685950E-003
 -0.16299999999999998          8.1531405955772487E-003
 -0.16249999999999998          8.5977696417562453E-003
 -0.16199999999999998          9.0651723842863491E-003
 -0.16149999999999998          9.5565708077808079E-003
 -0.16099999999999998          1.0073338928228426E-002
 -0.16049999999999998          1.0616763994266275E-002
 -0.15999999999999998          1.1188371281389942E-002
 -0.15949999999999998          1.1789473055765828E-002
 -0.15899999999999997          1.2421656517763138E-002
 -0.15849999999999997          1.3086338292304305E-002
 -0.15799999999999997          1.3784980320997696E-002
 -0.15749999999999997          1.4518969641683054E-002
 -0.15699999999999997          1.5289883804117180E-002
 -0.15649999999999997          1.6099221997788120E-002
 -0.15599999999999997          1.6948551741744661E-002
 -0.15549999999999997          1.7839575949447788E-002
 -0.15499999999999997          1.8774267532932723E-002
 -0.15449999999999997          1.9754623373131656E-002
 -0.15399999999999997          2.0782705565981996E-002
 -0.15349999999999997          2.1860859835215178E-002
 -0.15299999999999997          2.2991419623874340E-002
 -0.15249999999999997          2.4176890327006123E-002
 -0.15200000000000000          2.5420044530433616E-002
 -0.15150000000000000          2.6723571609003918E-002
 -0.15100000000000000          2.8090170184256552E-002
 -0.15049999999999999          2.9522901018935656E-002
 -0.14999999999999999          3.1024574854019854E-002
 -0.14949999999999999          3.2598086363396853E-002
 -0.14899999999999999          3.4246795409645821E-002
 -0.14849999999999999          3.5973947409778148E-002
 -0.14799999999999999          3.7782692180771058E-002
 -0.14749999999999999          3.9676725566779120E-002
 -0.14699999999999999          4.1659900482212936E-002
 -0.14649999999999999          4.3735523212092342E-002
 -0.14599999999999999          4.5907889503414651E-002
 -0.14549999999999999          4.8181470353001937E-002
 -0.14499999999999999          5.0560411378191797E-002
 -0.14449999999999999          5.3049531533877300E-002
 -0.14399999999999999          5.5652656892898542E-002
 -0.14349999999999999          5.8375596901093549E-002
 -0.14299999999999999          6.1222749291543754E-002
 -0.14249999999999999          6.4199350969703695E-002
 -0.14199999999999999          6.7311086141768284E-002
 -0.14149999999999999          7.0562829018987555E-002
 -0.14099999999999999          7.3960573367238824E-002
 -0.14049999999999999          7.7510622351384562E-002
 -0.13999999999999999          8.1218182754747376E-002
 -0.13949999999999999          8.5090647016815624E-002
 -0.13899999999999998          8.9134520039368281E-002
 -0.13849999999999998          9.3355775738134111E-002
 -0.13799999999999998          9.7762790493837792E-002
 -0.13749999999999998         0.10236249965055447     
 -0.13699999999999998         0.10716349504697500     
 -0.13649999999999998         0.11217324792862432     
 -0.13599999999999998         0.11740032743430087     
 -0.13550000000000001         0.12285256182861523     
 -0.13500000000000001         0.12853997287793750     
 -0.13450000000000001         0.13447215187133194     
 -0.13400000000000001         0.14065733126873403     
 -0.13350000000000001         0.14710468891874862     
 -0.13300000000000001         0.15382489475198435     
 -0.13250000000000001         0.16082883888605765     
 -0.13200000000000001         0.16812681424932097     
 -0.13150000000000001         0.17573010725182364     
 -0.13100000000000001         0.18364902752112194     
 -0.13050000000000000         0.19189626063489101     
 -0.13000000000000000         0.20048415584373419     
 -0.12950000000000000         0.20942393458502589     
 -0.12900000000000000         0.21872877374599586     
 -0.12850000000000000         0.22841372679479116     
 -0.12800000000000000         0.23849217696489489     
 -0.12750000000000000         0.24897654885780085     
 -0.12700000000000000         0.25988429520918210     
 -0.12650000000000000         0.27122887044764210     
 -0.12600000000000000         0.28302523639317301     
 -0.12550000000000000         0.29528998818316188     
 -0.12499999999999999         0.30804153257664446     
 -0.12449999999999999         0.32129352426954927     
 -0.12399999999999999         0.33506741557661246     
 -0.12349999999999998         0.34937479677345040     
 -0.12299999999999998         0.36423925972519056     
 -0.12249999999999998         0.37967663498698068     
 -0.12199999999999998         0.39570819449568639     
 -0.12149999999999998         0.41235397286641173     
 -0.12099999999999998         0.42963589396023694     
 -0.12049999999999998         0.44757253334239810     
 -0.12000000000000000         0.46619080186459194     
 -0.11950000000000000         0.48550864731317045     
 -0.11899999999999999         0.50554833122474219     
 -0.11849999999999999         0.52633360222138781     
 -0.11799999999999999         0.54789209005472350     
 -0.11749999999999999         0.57024281076635774     
 -0.11699999999999999         0.59340952472620456     
 -0.11649999999999999         0.61742089703156711     
 -0.11599999999999999         0.64230830096879776     
 -0.11549999999999999         0.66809315595989638     
 -0.11499999999999999         0.69480551146381275     
 -0.11449999999999999         0.72247593068133775     
 -0.11399999999999999         0.75112931825252449     
 -0.11349999999999999         0.78079868244731254     
 -0.11299999999999999         0.81151452357750786     
 -0.11249999999999999         0.84330677895503614     
 -0.11199999999999999         0.87620471190969007     
 -0.11149999999999999         0.91023622946241423     
 -0.11099999999999999         0.94544041981710381     
 -0.11049999999999999         0.98185179505968678     
 -0.10999999999999999          1.0195089763596141     
 -0.10949999999999999          1.0584332117805624     
 -0.10899999999999999          1.0986780600218982     
 -0.10849999999999999          1.1402757409233084     
 -0.10799999999999998          1.1832609611716332     
 -0.10749999999999998          1.2276632262300904     
 -0.10699999999999998          1.2735343620477400     
 -0.10649999999999998          1.3209029978997537     
 -0.10599999999999998          1.3698157738056591     
 -0.10549999999999998          1.4203077996391062     
 -0.10499999999999998          1.4724273064851952     
 -0.10449999999999998          1.5262075441440319     
 -0.10399999999999998          1.5817005094085097     
 -0.10349999999999998          1.6389448801877236     
 -0.10299999999999998          1.6979863580895058     
 -0.10249999999999998          1.7588638435794861     
 -0.10199999999999998          1.8216304840142845     
 -0.10149999999999998          1.8863265070748749     
 -0.10099999999999998          1.9529922405915174     
 -0.10049999999999998          2.0217056242689022     
  -9.9999999999999978E-002     2.0924812853462296     
  -9.9499999999999977E-002     2.1653723837214933     
  -9.8999999999999977E-002     2.2404321092154200     
  -9.8499999999999976E-002     2.3177158778770233     
  -9.7999999999999976E-002     2.3972633131257215     
  -9.7499999999999976E-002     2.4791173594036344     
  -9.6999999999999975E-002     2.5633474790601056     
  -9.6499999999999975E-002     2.6499623866501878     
  -9.5999999999999974E-002     2.7390776111419015     
  -9.5500000000000002E-002     2.8307094226412586     
  -9.5000000000000001E-002     2.9249196564195827     
  -9.4500000000000001E-002     3.0217428895461014     
  -9.4000000000000000E-002     3.1212236282029160     
  -9.3500000000000000E-002     3.2234768763090420     
  -9.2999999999999999E-002     3.3285097528819918     
  -9.2499999999999999E-002     3.4363672900249878     
  -9.1999999999999998E-002     3.5471000474930978     
  -9.1499999999999998E-002     3.6608004530829703     
  -9.0999999999999998E-002     3.7774645876476711     
  -9.0499999999999997E-002     3.8971761766584443     
  -8.9999999999999997E-002     4.0199798638404314     
  -8.9499999999999996E-002     4.1459269129751455     
  -8.8999999999999996E-002     4.2750766381143404     
  -8.8499999999999995E-002     4.4074889327859115     
  -8.7999999999999995E-002     4.5432033726374605     
  -8.7499999999999994E-002     4.6822485611585094     
  -8.6999999999999994E-002     4.8247043851690652     
  -8.6499999999999994E-002     4.9706145374192054     
  -8.5999999999999993E-002     5.1200798786489461     
  -8.5499999999999993E-002     5.2730546514289678     
  -8.4999999999999992E-002     5.4296575837029444     
  -8.4499999999999992E-002     5.5899088020524967     
  -8.3999999999999991E-002     5.7538873454419850     
  -8.3499999999999991E-002     5.9215639171775987     
  -8.2999999999999990E-002     6.0930772101740853     
  -8.2499999999999990E-002     6.2684021304474573     
  -8.1999999999999990E-002     6.4475573035362483     
  -8.1499999999999989E-002     6.6305667675079594     
  -8.0999999999999989E-002     6.8175223991833924     
  -8.0499999999999988E-002     7.0084949780117256     
  -7.9999999999999988E-002     7.2034252857782626     
  -7.9499999999999987E-002     7.4025151641345985     
  -7.8999999999999987E-002     7.6056133450827481     
  -7.8499999999999986E-002     7.8128654261853896     
  -7.7999999999999986E-002     8.0242535380713242     
  -7.7499999999999986E-002     8.2397941925026821     
  -7.6999999999999985E-002     8.4595003366904002     
  -7.6499999999999985E-002     8.6834187980741824     
  -7.5999999999999984E-002     8.9115207370497345     
  -7.5499999999999984E-002     9.1438827857973912     
  -7.4999999999999983E-002     9.3804498386270971     
  -7.4499999999999983E-002     9.6213059365619564     
  -7.3999999999999982E-002     9.8665080937885534     
  -7.3499999999999982E-002     10.115893774345849     
  -7.2999999999999982E-002     10.369523693937854     
  -7.2499999999999981E-002     10.627506216768634     
  -7.1999999999999981E-002     10.889628326191385     
  -7.1499999999999980E-002     11.156062610680763     
  -7.0999999999999980E-002     11.426738896567713     
  -7.0499999999999979E-002     11.701583145304443     
  -6.9999999999999979E-002     11.980698523226941     
  -6.9499999999999978E-002     12.263976856940534     
  -6.8999999999999978E-002     12.551450959734897     
  -6.8499999999999978E-002     12.842788997445759     
  -6.7999999999999977E-002     13.138246995420509     
  -6.7499999999999977E-002     13.437546548988401     
  -6.6999999999999976E-002     13.740847731848845     
  -6.6499999999999976E-002     14.048052695755992     
  -6.5999999999999975E-002     14.359154230964727     
  -6.5499999999999975E-002     14.673886116745678     
  -6.4999999999999974E-002     14.992751252090635     
  -6.4499999999999974E-002     15.315059153982538     
  -6.4000000000000001E-002     15.640937703797952     
  -6.3500000000000001E-002     15.970277462004091     
  -6.3000000000000000E-002     16.303092760440350     
  -6.2500000000000000E-002     16.638934773823706     
  -6.2000000000000000E-002     16.978032748466120     
  -6.1499999999999999E-002     17.319773283379469     
  -6.0999999999999999E-002     17.664692381753198     
  -6.0499999999999998E-002     18.012394645894389     
  -5.9999999999999998E-002     18.362489332613428     
  -5.9499999999999997E-002     18.714965975158819     
  -5.8999999999999997E-002     19.069949435666274     
  -5.8499999999999996E-002     19.427101759254519     
  -5.7999999999999996E-002     19.786177784379014     
  -5.7499999999999996E-002     20.147268913015580     
  -5.6999999999999995E-002     20.510066992323750     
  -5.6499999999999995E-002     20.874241727405803     
  -5.5999999999999994E-002     21.239750931141828     
  -5.5499999999999994E-002     21.606269104770028     
  -5.4999999999999993E-002     21.973678482030067     
  -5.4499999999999993E-002     22.341660247440920     
  -5.3999999999999992E-002     22.710546323158930     
  -5.3499999999999992E-002     23.079219579100467     
  -5.2999999999999992E-002     23.448065870438981     
  -5.2499999999999991E-002     23.816702904127467     
  -5.1999999999999991E-002     24.184498458146294     
  -5.1499999999999990E-002     24.551724708752957     
  -5.0999999999999990E-002     24.917362164419146     
  -5.0499999999999989E-002     25.282171715163074     
  -4.9999999999999989E-002     25.644817940006021     
  -4.9499999999999988E-002     26.005757053871719     
  -4.8999999999999988E-002     26.364266454513810     
  -4.8499999999999988E-002     26.720211431799029     
  -4.7999999999999987E-002     27.072705490010620     
  -4.7499999999999987E-002     27.422002441990472     
  -4.6999999999999986E-002     27.767570464864832     
  -4.6499999999999986E-002     28.108576292889467     
  -4.5999999999999985E-002     28.445473294154908     
  -4.5499999999999985E-002     28.778017151686370     
  -4.4999999999999984E-002     29.105601538655549     
  -4.4499999999999984E-002     29.427675220190508     
  -4.3999999999999984E-002     29.744285201764015     
  -4.3499999999999983E-002     30.054304331574926     
  -4.2999999999999983E-002     30.357717667068087     
  -4.2499999999999982E-002     30.653110932051291     
  -4.1999999999999982E-002     30.942048603236529     
  -4.1499999999999981E-002     31.222757127478744     
  -4.0999999999999981E-002     31.494235928334376     
  -4.0499999999999980E-002     31.756338441202757     
  -3.9999999999999980E-002     32.009932690461724     
  -3.9499999999999980E-002     32.254166227706122     
  -3.8999999999999979E-002     32.488168624786695     
  -3.8499999999999979E-002     32.711401964029889     
  -3.7999999999999978E-002     32.923439705403041     
  -3.7499999999999978E-002     33.124256566189800     
  -3.6999999999999977E-002     33.311938037567103     
  -3.6499999999999977E-002     33.486966839750224     
  -3.5999999999999976E-002     33.648724214022337     
  -3.5499999999999976E-002     33.795764333170894     
  -3.4999999999999976E-002     33.928454340514506     
  -3.4499999999999975E-002     34.046439088107590     
  -3.3999999999999975E-002     34.149791819801848     
  -3.3499999999999974E-002     34.236775487225302     
  -3.2999999999999974E-002     34.308118119809464     
  -3.2499999999999973E-002     34.363533551196156     
  -3.1999999999999973E-002     34.401136442292298     
  -3.1500000000000000E-002     34.421582704253225     
  -3.1000000000000000E-002     34.423738269886243     
  -3.0499999999999999E-002     34.406499167860858     
  -2.9999999999999999E-002     34.369847848344136     
  -2.9499999999999998E-002     34.312497042546454     
  -2.8999999999999998E-002     34.233860039743277     
  -2.8499999999999998E-002     34.133826209042915     
  -2.7999999999999997E-002     34.011771808095190     
  -2.7499999999999997E-002     33.866870151737949     
  -2.6999999999999996E-002     33.700944799158137     
  -2.6499999999999996E-002     33.511759759597638     
  -2.5999999999999995E-002     33.298533527098904     
  -2.5499999999999995E-002     33.064571489893538     
  -2.4999999999999994E-002     32.804368119846281     
  -2.4499999999999994E-002     32.519015257564291     
  -2.3999999999999994E-002     32.208872948390301     
  -2.3499999999999993E-002     31.872516551667310     
  -2.2999999999999993E-002     31.507604971124550     
  -2.2499999999999992E-002     31.116348636917671     
  -2.1999999999999992E-002     30.696284421333729     
  -2.1499999999999991E-002     30.247890891107872     
  -2.0999999999999991E-002     29.772529910224407     
  -2.0499999999999990E-002     29.268628304447443     
  -1.9999999999999990E-002     28.735651623767922     
  -1.9499999999999990E-002     28.173250207792648     
  -1.8999999999999989E-002     27.579588655696366     
  -1.8499999999999989E-002     26.957513468717515     
  -1.7999999999999988E-002     26.303594496140065     
  -1.7499999999999988E-002     25.616857306611855     
  -1.6999999999999987E-002     24.899443968281552     
  -1.6499999999999987E-002     24.151956481581255     
  -1.5999999999999986E-002     23.370110033605233     
  -1.5499999999999986E-002     22.557888559065049     
  -1.4999999999999986E-002     21.712610167982916     
  -1.4499999999999985E-002     20.835046263786474     
  -1.3999999999999985E-002     19.925652366747777     
  -1.3499999999999984E-002     18.982433037864823     
  -1.2999999999999984E-002     18.008005417379451     
  -1.2499999999999983E-002     17.000747993705794     
  -1.1999999999999983E-002     15.959196765656984     
  -1.1499999999999982E-002     14.885290944414251     
  -1.0999999999999982E-002     13.779033475538554     
  -1.0499999999999982E-002     12.637914426420863     
  -9.9999999999999811E-003     11.463315416727106     
  -9.4999999999999807E-003     10.253232353351237     
  -8.9999999999999802E-003     9.0106622782410852     
  -8.4999999999999798E-003     7.7334542471079715     
  -7.9999999999999793E-003     6.4206300683487996     
  -7.4999999999999789E-003     5.0767552918789356     
  -6.9999999999999785E-003     3.6987572193397824     
  -6.4999999999999780E-003     2.2886385978811887     
  -5.9999999999999776E-003    0.84530374814364961     
  -5.4999999999999771E-003   -0.62757792089011843     
  -4.9999999999999767E-003    -2.1331711933700745     
  -4.4999999999999762E-003    -3.6684197965717829     
  -3.9999999999999758E-003    -5.2362808776604410     
  -3.4999999999999754E-003    -6.8356667187216900     
  -2.9999999999999749E-003    -8.4636990632538556     
  -2.4999999999999745E-003    -10.123134225516353     
  -1.9999999999999740E-003    -11.812339471048297     
  -1.4999999999999736E-003    -13.529583103432621     
  -9.9999999999997313E-004    -15.276113072856329     
  -4.9999999999997269E-004    -17.047744123805273     
   0.0000000000000000         -18.848527931713114     
   5.0000000000000044E-004    -20.675404211867765     
   1.0000000000000009E-003    -22.526787832916163     
   1.5000000000000013E-003    -24.404954984039744     
   2.0000000000000018E-003    -26.305277491700135     
   2.5000000000000022E-003    -28.227110891802006     
   3.0000000000000027E-003    -30.172487788418287     
   3.5000000000000031E-003    -32.138639542218719     
   4.0000000000000036E-003    -34.125281893182063     
   4.5000000000000040E-003    -36.135889988279686     
   5.0000000000000044E-003    -38.164647015090623     
   5.5000000000000049E-003    -40.214419051791040     
   6.0000000000000053E-003    -42.279558661652054     
   6.5000000000000058E-003    -44.359134651315337     
   7.0000000000000062E-003    -46.451509758297604     
   7.5000000000000067E-003    -48.556828880573534     
   8.0000000000000071E-003    -50.671577797048670     
   8.5000000000000075E-003    -52.795030442026118     
   9.0000000000000080E-003    -54.928049264057648     
   9.5000000000000084E-003    -57.070947116873000     
   1.0000000000000009E-002    -59.217184161071401     
   1.0500000000000009E-002    -61.369547299220230     
   1.1000000000000010E-002    -63.526094501777038     
   1.1500000000000010E-002    -65.685762227050176     
   1.2000000000000011E-002    -67.847049783934850     
   1.2500000000000011E-002    -70.008042239672491     
   1.3000000000000012E-002    -72.166348732109682     
   1.3500000000000012E-002    -74.319364199573499     
   1.4000000000000012E-002    -76.466971609874150     
   1.4500000000000013E-002    -78.609860059194631     
   1.5000000000000013E-002    -80.742352431042661     
   1.5500000000000014E-002    -82.865297218825020     
   1.6000000000000014E-002    -84.975055824724109     
   1.6500000000000015E-002    -87.071332721284762     
   1.7000000000000015E-002    -89.152990532698141     
   1.7500000000000016E-002    -91.218967114889068     
   1.8000000000000016E-002    -93.264758072713505     
   1.8500000000000016E-002    -95.292391709159574     
   1.9000000000000017E-002    -97.298509314823605     
   1.9500000000000017E-002    -99.278306739661616     
   2.0000000000000018E-002    -101.22795503788021     
   2.0500000000000018E-002    -103.15124769810888     
   2.1000000000000019E-002    -105.04599526511834     
   2.1500000000000019E-002    -106.91169964916071     
   2.2000000000000020E-002    -108.73972604566683     
   2.2500000000000020E-002    -110.53635657685743     
   2.3000000000000020E-002    -112.29717639604934     
   2.3500000000000021E-002    -114.02251941943888     
   2.4000000000000021E-002    -115.70164761204700     
   2.4500000000000022E-002    -117.34062464569450     
   2.5000000000000022E-002    -118.93761605502340     
   2.5500000000000023E-002    -120.48338208252511     
   2.6000000000000023E-002    -121.98114895387863     
   2.6500000000000024E-002    -123.42763437710335     
   2.7000000000000024E-002    -124.82222469145711     
   2.7500000000000024E-002    -126.16420470942342     
   2.8000000000000025E-002    -127.45059625987068     
   2.8500000000000025E-002    -128.68180049651932     
   2.9000000000000026E-002    -129.85683580604075     
   2.9500000000000026E-002    -130.97233711330148     
   3.0000000000000027E-002    -132.03076037625397     
   3.0500000000000027E-002    -133.02410533707075     
   3.1000000000000028E-002    -133.95619898097857     
   3.1500000000000028E-002    -134.82065153049103     
   3.2000000000000028E-002    -135.61911005398730     