 -0.23999999999999999          0.0000000000000000     
 -0.23949999999999999          0.0000000000000000     
 -0.23899999999999999          0.0000000000000000     
 -0.23849999999999999          0.0000000000000000     
 -0.23799999999999999          0.0000000000000000     
 -0.23749999999999999          0.0000000000000000     
 -0.23699999999999999          0.0000000000000000     
 -0.23649999999999999          0.0000000000000000     
 -0.23599999999999999          0.0000000000000000     
 -0.23549999999999999          0.0000000000000000     
 -0.23499999999999999          4.2337982614240642E-038
 -0.23449999999999999          7.7346697818584621E-037
 -0.23399999999999999          7.2756671831168537E-036
 -0.23349999999999999          4.6794151437986846E-035
 -0.23299999999999998          2.3044425691831184E-034
 -0.23249999999999998          9.2193232149725051E-034
 -0.23199999999999998          3.0999655801885498E-033
 -0.23149999999999998          8.9259466409721402E-033
 -0.23099999999999998          2.2140105489951616E-032
 -0.23049999999999998          4.6824001326233802E-032
 -0.22999999999999998          8.0777250519085444E-032
 -0.22949999999999998          9.5867729777427609E-032
 -0.22899999999999998         -7.5093650109519249E-033
 -0.22849999999999998         -4.8949837015416227E-031
 -0.22799999999999998         -1.9209885422945712E-030
 -0.22749999999999998         -5.4002026159261679E-030
 -0.22699999999999998         -1.2805851256502075E-029
 -0.22649999999999998         -2.6988980155218534E-029
 -0.22599999999999998         -5.1699898149842931E-029
 -0.22549999999999998         -9.0913354505929335E-029
 -0.22499999999999998         -1.4708998653353425E-028
 -0.22449999999999998         -2.1786613050456661E-028
 -0.22399999999999998         -2.9080242157534800E-028
 -0.22349999999999998         -3.3627567386289655E-028
 -0.22299999999999998         -2.9948725821481641E-028
 -0.22249999999999998         -9.3926616348668994E-029
 -0.22199999999999998          3.9962386715029191E-028
 -0.22150000000000000          1.3226688856803804E-027
 -0.22100000000000000          2.8100972262432000E-027
 -0.22050000000000000          4.9360294101582115E-027
 -0.22000000000000000          7.6305868249567158E-027
 -0.21950000000000000          1.0570345551368836E-026
 -0.21900000000000000          1.3056091715666932E-026
 -0.21850000000000000          1.3906306585940299E-026
 -0.21800000000000000          1.1411746595844710E-026
 -0.21750000000000000          3.4118915930009074E-027
 -0.21700000000000000         -1.2437634780809370E-026
 -0.21650000000000000         -3.8143322963989109E-026
 -0.21600000000000000         -7.4561869351446518E-026
 -0.21550000000000000         -1.2031717619787352E-025
 -0.21500000000000000         -1.7054981718627792E-025
 -0.21450000000000000         -2.1571226424755222E-025
 -0.21400000000000000         -2.4074437384012208E-025
 -0.21350000000000000         -2.2507298635651790E-025
 -0.21299999999999999         -1.4394174839435114E-025
 -0.21249999999999999          2.8442577152969886E-026
 -0.21199999999999999          3.1361155426300009E-025
 -0.21149999999999999          7.2134925217987267E-025
 -0.21099999999999999          1.2404555716826794E-024
 -0.21049999999999999          1.8288101229018562E-024
 -0.20999999999999999          2.4044829462087000E-024
 -0.20949999999999999          2.8403070998836418E-024
 -0.20899999999999999          2.9648090722501480E-024
 -0.20849999999999999          2.5725300405434061E-024
 -0.20799999999999999          1.4463217424974254E-024
 -0.20749999999999999         -6.0689278249187057E-025
 -0.20699999999999999         -3.7073524038515607E-024
 -0.20649999999999999         -7.8437670429137349E-024
 -0.20599999999999999         -1.2811003282036984E-023
 -0.20549999999999999         -1.8153817775857768E-023
 -0.20499999999999999         -2.3129341787651269E-023
 -0.20449999999999999         -2.6702947952618491E-023
 -0.20399999999999999         -2.7592331825270006E-023
 -0.20349999999999999         -2.4372297851188273E-023
 -0.20299999999999999         -1.5647399998413446E-023
 -0.20249999999999999         -2.9117908647977950E-025
 -0.20199999999999999          2.2260818552777419E-023
 -0.20149999999999998          5.1690319073885777E-023
 -0.20099999999999998          8.6487901303609148E-023
 -0.20049999999999998          1.2370954580999358E-022
 -0.19999999999999998          1.5885899155788173E-022
 -0.19949999999999998          1.8595901422486503E-022
 -0.19899999999999998          1.9786750698878762E-022
 -0.19849999999999998          1.8687697063950365E-022
 -0.19799999999999998          1.4560664584292255E-022
 -0.19749999999999998          6.8157752605050948E-023
 -0.19699999999999998         -4.8545212686303746E-023
 -0.19649999999999998         -2.0335458363178979E-022
 -0.19600000000000001         -3.8961592722085896E-022
 -0.19550000000000001         -5.9421284687151425E-022
 -0.19500000000000001         -7.9717082910548236E-022
 -0.19450000000000001         -9.7204314168127335E-022
 -0.19400000000000001         -1.0872618683348983E-021
 -0.19350000000000001         -1.1085627788500975E-021
 -0.19300000000000000         -1.0024798945160477E-021
 -0.19250000000000000         -7.4077002592901743E-022
 -0.19200000000000000         -3.0546494115198929E-022
 -0.19150000000000000          3.0590746056538207E-022
 -0.19100000000000000          1.0755374515300436E-021
 -0.19050000000000000          1.9616917402573582E-021
 -0.19000000000000000          2.8969601807775964E-021
 -0.18950000000000000          3.7891003208101790E-021
 -0.18900000000000000          4.5250398421830533E-021
 -0.18850000000000000          4.9783643023273060E-021
 -0.18800000000000000          5.0202694014062131E-021
 -0.18750000000000000          4.5335471201333485E-021
 -0.18700000000000000          3.4287117027495330E-021
 -0.18650000000000000          1.6609132387275569E-021
 -0.18600000000000000         -7.5410947450968748E-022
 -0.18550000000000000         -3.7270827775014425E-021
 -0.18500000000000000         -7.0873917326923119E-021
 -0.18450000000000000         -1.0582444693817662E-020
 -0.18400000000000000         -1.3885861555882069E-020
 -0.18350000000000000         -1.6615483260298901E-020
 -0.18300000000000000         -1.8361302873054618E-020
 -0.18250000000000000         -1.8722386597479622E-020
 -0.18200000000000000         -1.7350543094477371E-020
 -0.18149999999999999         -1.3997463083917104E-020
 -0.18099999999999999         -8.5608718222877482E-021
 -0.18049999999999999         -1.1246155555350423E-021
 -0.17999999999999999          8.0128218534123192E-021
 -0.17949999999999999          1.8326572596437328E-020
 -0.17899999999999999          2.9074771683430972E-020
 -0.17849999999999999          3.9331972837801905E-020
 -0.17799999999999999          4.8047396572079224E-020
 -0.17749999999999999          5.4126285501420336E-020
 -0.17699999999999999          5.6529865566346297E-020
 -0.17649999999999999          5.4386685835661151E-020
 -0.17599999999999999          4.7105654675861870E-020
 -0.17549999999999999          3.4479207914334463E-020
 -0.17499999999999999          1.6764537329271835E-020
 -0.17449999999999999         -5.2692705567270646E-021
 -0.17399999999999999         -3.0338147897437940E-020
 -0.17349999999999999         -5.6691088237611710E-020
 -0.17299999999999999         -8.2212033515573453E-020
 -0.17249999999999999         -1.0457274172562489E-019
 -0.17199999999999999         -1.2142826569110329E-019
 -0.17149999999999999         -1.3064040815204443E-019
 -0.17099999999999999         -1.3050993333511126E-019
 -0.17049999999999998         -1.1999403790651291E-019
 -0.16999999999999998         -9.8884440372947927E-020
 -0.16949999999999998         -6.7921687102501489E-020
 -0.16899999999999998         -2.8825153777721757E-020
 -0.16849999999999998          1.5775272937511029E-020
 -0.16799999999999998          6.2511441220264520E-020
 -0.16749999999999998          1.0754742538003336E-019
 -0.16699999999999998          1.4693130380127297E-019
 -0.16649999999999998          1.7699952586272866E-019
 -0.16599999999999998          1.9479526984134429E-019
 -0.16549999999999998          1.9845537603082951E-019
 -0.16499999999999998          1.8751734707119062E-019
 -0.16449999999999998          1.6309977671984365E-019
 -0.16399999999999998          1.2791841525007384E-019
 -0.16349999999999998          8.6111976846259304E-020
 -0.16299999999999998          4.2870987540427607E-020
 -0.16249999999999998          3.8845726346939972E-021
 -0.16199999999999998         -2.5356680456123209E-020
 -0.16149999999999998         -4.0340600041362414E-020
 -0.16099999999999998         -3.8315235386829255E-020
 -0.16049999999999998         -1.8978578327236646E-020
 -0.15999999999999998          1.5022475572189552E-020
 -0.15949999999999998          5.7878402609355012E-020
 -0.15899999999999997          1.0076492563566213E-019
 -0.15849999999999997          1.3240194096526439E-019
 -0.15799999999999997          1.4003285013712800E-019
 -0.15749999999999997          1.1079352767293579E-019
 -0.15699999999999997          3.3381374451588939E-020
 -0.15649999999999997         -1.0010445422828122E-019
 -0.15599999999999997         -2.9232710189170609E-019
 -0.15549999999999997         -5.3908461704271275E-019
 -0.15499999999999997         -8.2811372398277577E-019
 -0.15449999999999997         -1.1385318087082936E-018
 -0.15399999999999997         -1.4411033098419216E-018
 -0.15349999999999997         -1.6994574577412213E-018
 -0.15299999999999997         -1.8723059457209145E-018
 -0.15249999999999997         -1.9166287644833434E-018
 -0.15200000000000000         -1.7916721728140923E-018
 -0.15150000000000000         -1.4635208350202978E-018
 -0.15100000000000000         -9.0987272101661159E-019
 -0.15049999999999999         -1.2463571021506594E-019
 -0.14999999999999999          8.7818064001513773E-019
 -0.14949999999999999          2.0617443680659713E-018
 -0.14899999999999999          3.3652749275359830E-018
 -0.14849999999999999          4.7049313594883293E-018
 -0.14799999999999999          5.9769109756488840E-018
 -0.14749999999999999          7.0628560176850377E-018
 -0.14699999999999999          7.8374238073766300E-018
 -0.14649999999999999          8.1776754533635799E-018
 -0.14599999999999999          7.9737241471712802E-018
 -0.14549999999999999          7.1399252625372158E-018
 -0.14499999999999999          5.6256495557088533E-018
 -0.14449999999999999          3.4247097157042962E-018
 -0.14399999999999999          5.8246289894318264E-019
 -0.14349999999999999         -2.8003570980717212E-018
 -0.14299999999999999         -6.5678227490674715E-018
 -0.14249999999999999         -1.0513391966474465E-017
 -0.14199999999999999         -1.4389188912802916E-017
 -0.14149999999999999         -1.7919613965152714E-017
 -0.14099999999999999         -2.0818713267306115E-017
 -0.14049999999999999         -2.2810339189207192E-017
 -0.13999999999999999         -2.3649618145399420E-017
 -0.13949999999999999         -2.3144219062935645E-017
 -0.13899999999999998         -2.1173577058813814E-017
 -0.13849999999999998         -1.7704393150294992E-017
 -0.13799999999999998         -1.2800695252693846E-017
 -0.13749999999999998         -6.6271977734365279E-018
 -0.13699999999999998          5.5480161736789140E-019
 -0.13649999999999998          8.3995211577472391E-018
 -0.13599999999999998          1.6495907090773395E-017
 -0.13550000000000001          2.4393703502337821E-017
 -0.13500000000000001          3.1633838387363385E-017
 -0.13450000000000001          3.7781663075539201E-017
 -0.13400000000000001          4.2459548110538884E-017
 -0.13350000000000001          4.5376785829164348E-017
 -0.13300000000000001          4.6353643119197621E-017
 -0.13250000000000001          4.5336938884696444E-017
 -0.13200000000000001          4.2405404176363613E-017
 -0.13150000000000001          3.7763531276512039E-017
 -0.13100000000000001          3.1723739685058099E-017
 -0.13050000000000000          2.4677699422045652E-017
 -0.13000000000000000          1.7058786954003480E-017
 -0.12950000000000000          9.2978302039930891E-018
 -0.12900000000000000          1.7785797648737561E-018
 -0.12850000000000000         -5.2076325923842620E-018
 -0.12800000000000000         -1.1498104163604541E-017
 -0.12750000000000000         -1.7085384119419510E-017
 -0.12700000000000000         -2.2128264254069441E-017
 -0.12650000000000000         -2.6945937849506910E-017
 -0.12600000000000000         -3.1993029987835962E-017
 -0.12550000000000000         -3.7815957983735650E-017
 -0.12499999999999999         -4.4992256032168047E-017
 -0.12449999999999999         -5.4057014036503907E-017
 -0.12399999999999999         -6.5423369008044065E-017
 -0.12349999999999998         -7.9299641420976324E-017
 -0.12299999999999998         -9.5614369487821005E-017
 -0.12249999999999998         -1.1395649076625355E-016
 -0.12199999999999998         -1.3353574998626531E-016
 -0.12149999999999998         -1.5317227657444534E-016
 -0.12099999999999998         -1.7131842222215183E-016
 -0.12049999999999998         -1.8611656426671729E-016
 -0.12000000000000000         -1.9548915588165353E-016
 -0.11950000000000000         -1.9726395460394731E-016
 -0.11899999999999999         -1.8932009581279225E-016
 -0.11849999999999999         -1.6975416412680995E-016
 -0.11799999999999999         -1.3705112200582787E-016
 -0.11749999999999999         -9.0244180602228741E-017
 -0.11699999999999999         -2.9063530143810012E-017
 -0.11649999999999999          4.5956090190637285E-017
 -0.11599999999999999          1.3340479075168592E-016
 -0.11549999999999999          2.3098141132349502E-016
 -0.11499999999999999          3.3553092623110972E-016
 -0.11449999999999999          4.4314360344357160E-016
 -0.11399999999999999          5.4930409560752518E-016
 -0.11349999999999999          6.4909050602471254E-016
 -0.11299999999999999          7.3740750800092543E-016
 -0.11249999999999999          8.0923749011486620E-016
 -0.11199999999999999          8.5990588928887518E-016
 -0.11149999999999999          8.8531100141543261E-016
 -0.11099999999999999          8.8214855096729948E-016
 -0.11049999999999999          8.4808252695506682E-016
 -0.10999999999999999          7.8183692718325525E-016
 -0.10949999999999999          6.8324811547436706E-016
 -0.10899999999999999          5.5324735161434917E-016
 -0.10849999999999999          3.9376544720646773E-016
 -0.10799999999999998          2.0759330963747669E-016
 -0.10749999999999998         -1.7959768207218182E-018
 -0.10699999999999998         -2.3045439801162523E-016
 -0.10649999999999998         -4.7414453285704616E-016
 -0.10599999999999998         -7.2852165592819499E-016
 -0.10549999999999998         -9.8927974288880649E-016
 -0.10499999999999998         -1.2522172985622625E-015
 -0.10449999999999998         -1.5132418303243447E-015
 -0.10399999999999998         -1.7683100264013346E-015
 -0.10349999999999998         -2.0132821191426453E-015
 -0.10299999999999998         -2.2437256910144135E-015
 -0.10249999999999998         -2.4546839052093069E-015
 -0.10199999999999998         -2.6404399246080694E-015
 -0.10149999999999998         -2.7942752956313169E-015
 -0.10099999999999998         -2.9083443756051063E-015
 -0.10049999999999998         -2.9735786180378962E-015
  -9.9999999999999978E-002    -2.9797602644869581E-015
  -9.9499999999999977E-002    -2.9157224560921648E-015
  -9.8999999999999977E-002    -2.7697369629075966E-015
  -9.8499999999999976E-002    -2.5300270623511032E-015
  -9.7999999999999976E-002    -2.1855266924832809E-015
  -9.7499999999999976E-002    -1.7266112296827158E-015
  -9.6999999999999975E-002    -1.1461372215887389E-015
  -9.6499999999999975E-002    -4.4031205171023928E-016
  -9.5999999999999974E-002     3.9033999302821214E-016
  -9.5500000000000002E-002     1.3401538239264806E-015
  -9.5000000000000001E-002     2.3976402596182292E-015
  -9.4500000000000001E-002     3.5450272783206418E-015
  -9.4000000000000000E-002     4.7581033961485199E-015
  -9.3500000000000000E-002     6.0064194727139659E-015
  -9.2999999999999999E-002     7.2538088952351157E-015
  -9.2499999999999999E-002     8.4592511286258644E-015
  -9.1999999999999998E-002     9.5781511587626940E-015
  -9.1499999999999998E-002     1.0563853563877890E-014
  -9.0999999999999998E-002     1.1369406460672200E-014
  -9.0499999999999997E-002     1.1949518997455937E-014
  -8.9999999999999997E-002     1.2262561198937445E-014
  -8.9499999999999996E-002     1.2272370687499597E-014
  -8.8999999999999996E-002     1.1950268621614257E-014
  -8.8499999999999995E-002     1.1276160838673711E-014
  -8.7999999999999995E-002     1.0240046420669727E-014
  -8.7499999999999994E-002     8.8425809711034815E-015
  -8.6999999999999994E-002     7.0952540683880041E-015
  -8.6499999999999994E-002     5.0200987335472739E-015
  -8.5999999999999993E-002     2.6492253503369910E-015
  -8.5499999999999993E-002     2.3173071122701495E-017
  -8.4999999999999992E-002    -2.8102929004221325E-015
  -8.4499999999999992E-002    -5.7981488940607104E-015
  -8.3999999999999991E-002    -8.8839568365109596E-015
  -8.3499999999999991E-002    -1.2010258883070595E-014
  -8.2999999999999990E-002    -1.5120051410455297E-014
  -8.2499999999999990E-002    -1.8158648277524433E-014
  -8.1999999999999990E-002    -2.1075294423045579E-014
  -8.1499999999999989E-002    -2.3823819775129797E-014
  -8.0999999999999989E-002    -2.6363426144839636E-014
  -8.0499999999999988E-002    -2.8658722801572917E-014
  -7.9999999999999988E-002    -3.0679411376806354E-014
  -7.9499999999999987E-002    -3.2399515064113552E-014
  -7.8999999999999987E-002    -3.3796587490392271E-014
  -7.8499999999999986E-002    -3.4850188056559372E-014
  -7.7999999999999986E-002    -3.5540801123510116E-014
  -7.7499999999999986E-002    -3.5848755198077467E-014
  -7.6999999999999985E-002    -3.5753006593719841E-014
  -7.6499999999999985E-002    -3.5230654927675270E-014
  -7.5999999999999984E-002    -3.4256326480975804E-014
  -7.5499999999999984E-002    -3.2802662089425130E-014
  -7.4999999999999983E-002    -3.0840869409080179E-014
  -7.4499999999999983E-002    -2.8341342944368519E-014
  -7.3999999999999982E-002    -2.5276328813740416E-014
  -7.3499999999999982E-002    -2.1620853097779023E-014
  -7.2999999999999982E-002    -1.7354747942010217E-014
  -7.2499999999999981E-002    -1.2466054935284659E-014
  -7.1999999999999981E-002    -6.9516582669058771E-015
  -7.1499999999999980E-002    -8.2095174401715636E-016
  -7.0999999999999980E-002     5.9035528269840883E-015
  -7.0499999999999979E-002     1.3183983967751407E-014
  -6.9999999999999979E-002     2.0966626872176430E-014
  -6.9499999999999978E-002     2.9182097683417771E-014
  -6.8999999999999978E-002     3.7743120667689187E-014
  -6.8499999999999978E-002     4.6547818090226720E-014
  -6.7999999999999977E-002     5.5478679376191886E-014
  -6.7499999999999977E-002     6.4404624482931189E-014
  -6.6999999999999976E-002     7.3182359152691723E-014
  -6.6499999999999976E-002     8.1657852138081188E-014
  -6.5999999999999975E-002     8.9667863249504737E-014
  -6.5499999999999975E-002     9.7042077878192051E-014
  -6.4999999999999974E-002     1.0360417086957910E-013
  -6.4499999999999974E-002     1.0917269421383685E-013
  -6.4000000000000001E-002     1.1356281854561084E-013
  -6.3500000000000001E-002     1.1658901654439807E-013
  -6.3000000000000000E-002     1.1806202716846403E-013
  -6.2500000000000000E-002     1.1779428344196874E-013
  -6.2000000000000000E-002     1.1560073915912322E-013
  -6.1499999999999999E-002     1.1130004795405213E-013
  -6.0999999999999999E-002     1.0471839866597887E-013
  -6.0499999999999998E-002     9.5690640198979604E-014
  -5.9999999999999998E-002     8.4067369493685817E-014
  -5.9499999999999997E-002     6.9717974069630900E-014
  -5.8999999999999997E-002     5.2535765044910490E-014
  -5.8499999999999996E-002     3.2447568937277182E-014
  -5.7999999999999996E-002     9.4164559572636371E-015
  -5.7499999999999996E-002    -1.6549028179725297E-014
  -5.6999999999999995E-002    -4.5383073248852698E-014
  -5.6499999999999995E-002    -7.6965946907859434E-014
  -5.5999999999999994E-002    -1.1110657207637209E-013
  -5.5499999999999994E-002    -1.4754034582606379E-013
  -5.4999999999999993E-002    -1.8592542598821343E-013
  -5.4499999999999993E-002    -2.2583292928844007E-013
  -5.3999999999999992E-002    -2.6675176282263402E-013
  -5.3499999999999992E-002    -3.0807799887566656E-013
  -5.2999999999999992E-002    -3.4912163763244075E-013
  -5.2499999999999991E-002    -3.8910403219773182E-013
  -5.1999999999999991E-002    -4.2715990792273340E-013
  -5.1499999999999990E-002    -4.6234131974298709E-013
  -5.0999999999999990E-002    -4.9361556508920046E-013
  -5.0499999999999989E-002    -5.1987402013495276E-013
  -4.9999999999999989E-002    -5.3993354925951920E-013
  -4.9499999999999988E-002    -5.5254872942736566E-013
  -4.8999999999999988E-002    -5.5638816037067995E-013
  -4.8499999999999988E-002    -5.5005750388553709E-013
  -4.7999999999999987E-002    -5.3209422545136276E-013
  -4.7499999999999987E-002    -5.0095767378105505E-013
  -4.6999999999999986E-002    -4.5503997705281796E-013
  -4.6499999999999986E-002    -3.9265861612527986E-013
  -4.5999999999999985E-002    -3.1205051563565345E-013
  -4.5499999999999985E-002    -2.1134554880914563E-013
  -4.4999999999999984E-002    -8.8601259033531388E-014
  -4.4499999999999984E-002     5.8230242188424958E-014
  -4.3999999999999984E-002     2.3132542973161585E-013
  -4.3499999999999983E-002     4.3295599852673228E-013
  -4.2999999999999983E-002     6.6552503525524331E-013
  -4.2499999999999982E-002     9.3158087580841320E-013
  -4.1999999999999982E-002     1.2337771863185631E-012
  -4.1499999999999981E-002     1.5749689963664992E-012
  -4.0999999999999981E-002     1.9581062032231200E-012
  -4.0499999999999980E-002     2.3862921187667308E-012
  -3.9999999999999980E-002     2.8628030935423654E-012
  -3.9499999999999980E-002     3.3910977324802527E-012
  -3.8999999999999979E-002     3.9747940182299768E-012
  -3.8499999999999979E-002     4.6177020540660862E-012
  -3.7999999999999978E-002     5.3238030303659478E-012
  -3.7499999999999978E-002     6.0973565606248226E-012
  -3.6999999999999977E-002     6.9428057053455561E-012
  -3.6499999999999977E-002     7.8648251106150369E-012
  -3.5999999999999976E-002     8.8684424387475147E-012
  -3.5499999999999976E-002     9.9589034935343435E-012
  -3.4999999999999976E-002     1.1141853932528090E-011
  -3.4499999999999975E-002     1.2423258602400900E-011
  -3.3999999999999975E-002     1.3809346027793268E-011
  -3.3499999999999974E-002     1.5306735046127784E-011
  -3.2999999999999974E-002     1.6922664658469699E-011
  -3.2499999999999973E-002     1.8664710402238605E-011
  -3.1999999999999973E-002     2.0540898842957844E-011
  -3.1500000000000000E-002     2.2559822066003932E-011
  -3.1000000000000000E-002     2.4730753903079439E-011
  -3.0499999999999999E-002     2.7063190230491863E-011
  -2.9999999999999999E-002     2.9567581022460487E-011
  -2.9499999999999998E-002     3.2254796056285784E-011
  -2.8999999999999998E-002     3.5136515225131504E-011
  -2.8499999999999998E-002     3.8224787918261782E-011
  -2.7999999999999997E-002     4.1532950689759929E-011
  -2.7499999999999997E-002     4.5075127658167347E-011
  -2.6999999999999996E-002     4.8866202750907917E-011
  -2.6499999999999996E-002     5.2921302756692157E-011
  -2.5999999999999995E-002     5.7257847768665826E-011
  -2.5499999999999995E-002     6.1893386249511906E-011
  -2.4999999999999994E-002     6.6847798130265090E-011
  -2.4499999999999994E-002     7.2140966811407026E-011
  -2.3999999999999994E-002     7.7794076736026341E-011
  -2.3499999999999993E-002     8.3832552011386952E-011
  -2.2999999999999993E-002     9.0279408948568118E-011
  -2.2499999999999992E-002     9.7162132506323218E-011
  -2.1999999999999992E-002     1.0450933174421806E-010
  -2.1499999999999991E-002     1.1235030267231494E-010
  -2.0999999999999991E-002     1.2071887933728931E-010
  -2.0499999999999990E-002     1.2964841700213725E-010
  -1.9999999999999990E-002     1.3917685059983143E-010
  -1.9499999999999990E-002     1.4934234404684332E-010
  -1.8999999999999989E-002     1.6018550375029861E-010
  -1.8499999999999989E-002     1.7175214028775088E-010
  -1.7999999999999988E-002     1.8408875812614411E-010
  -1.7499999999999988E-002     1.9724821775923829E-010
  -1.6999999999999987E-002     2.1127979921153894E-010
  -1.6499999999999987E-002     2.2624373208213200E-010
  -1.5999999999999986E-002     2.4219906635813970E-010
  -1.5499999999999986E-002     2.5920782187327518E-010
  -1.4999999999999986E-002     2.7733990104472639E-010
  -1.4499999999999985E-002     2.9666871736999667E-010
  -1.3999999999999985E-002     3.1726979377033615E-010
  -1.3499999999999984E-002     3.3922822884058235E-010
  -1.2999999999999984E-002     3.6262387537178142E-010
  -1.2499999999999983E-002     3.8755623710251541E-010
  -1.1999999999999983E-002     4.1411488127529594E-010
  -1.1499999999999982E-002     4.4240705543430181E-010
  -1.0999999999999982E-002     4.7254150592479505E-010
  -1.0499999999999982E-002     5.0463566658720538E-010
  -9.9999999999999811E-003     5.3880538919415244E-010
  -9.4999999999999807E-003     5.7518856344529468E-010
  -8.9999999999999802E-003     6.1391525196796692E-010
  -8.4999999999999798E-003     6.5513361402480541E-010
  -7.9999999999999793E-003     6.9899636079284733E-010
  -7.4999999999999789E-003     7.4567452212903618E-010
  -6.9999999999999785E-003     7.9533724051117360E-010
  -6.4999999999999780E-003     8.4816237366780456E-010
  -5.9999999999999776E-003     9.0435159361135220E-010
  -5.4999999999999771E-003     9.6411056915712834E-010
  -4.9999999999999767E-003     1.0276519635254999E-009
  -4.4999999999999762E-003     1.0951946016746206E-009
  -3.9999999999999758E-003     1.1670087118886840E-009
  -3.4999999999999754E-003     1.2433488683072369E-009
  -2.9999999999999749E-003     1.3244690899583134E-009
  -2.4999999999999745E-003     1.4106683599024450E-009
  -1.9999999999999740E-003     1.5022365573713614E-009
  -1.4999999999999736E-003     1.5995085256292896E-009
  -9.9999999999997313E-004     1.7028284338138633E-009
  -4.9999999999997269E-004     1.8125575484972956E-009
   0.0000000000000000          1.9290820052475510E-009
   5.0000000000000044E-004     2.0528114763607164E-009
   1.0000000000000009E-003     2.1841277675349602E-009
   1.5000000000000013E-003     2.3235151580536240E-009
   2.0000000000000018E-003     2.4714672530734560E-009
   2.5000000000000022E-003     2.6284570076029468E-009
   3.0000000000000027E-003     2.7950450842695318E-009
   3.5000000000000031E-003     2.9717479588242668E-009
   4.0000000000000036E-003     3.1592106708444589E-009
   4.5000000000000040E-003     3.3580465075289112E-009
   5.0000000000000044E-003     3.5689422528406567E-009
   5.5000000000000049E-003     3.7925320661713613E-009
   6.0000000000000053E-003     4.0295748959806588E-009
   6.5000000000000058E-003     4.2808552258577492E-009
   7.0000000000000062E-003     4.5472003940005834E-009
   7.5000000000000067E-003     4.8294421794992104E-009
   8.0000000000000071E-003     5.1285673485779171E-009
   8.5000000000000075E-003     5.4454769582434892E-009
   9.0000000000000080E-003     5.7811750941993978E-009
   9.5000000000000084E-003     6.1366751680225207E-009
   1.0000000000000009E-002     6.5131220416958513E-009
   1.0500000000000009E-002     6.9117578327393403E-009
   1.1000000000000010E-002     7.3337758088598548E-009
   1.1500000000000010E-002     7.7806392440038508E-009
   1.2000000000000011E-002     8.2536137924194009E-009
   1.2500000000000011E-002     8.7540925619578047E-009
   1.3000000000000012E-002     9.2837577625459744E-009
   1.3500000000000012E-002     9.8441503837420896E-009
   1.4000000000000012E-002     1.0436965958149358E-008
   1.4500000000000013E-002     1.1064142491079565E-008
   1.5000000000000013E-002     1.1727484761081541E-008
   1.5500000000000014E-002     1.2428859719193497E-008
   1.6000000000000014E-002     1.3170506463211495E-008
   1.6500000000000015E-002     1.3954686295392094E-008
   1.7000000000000015E-002     1.4783415380748011E-008
   1.7500000000000016E-002     1.5659342267326792E-008
   1.8000000000000016E-002     1.6585179452022203E-008
   1.8500000000000016E-002     1.7563388965413651E-008
   1.9000000000000017E-002     1.8597011930410190E-008
   1.9500000000000017E-002     1.9688840779963357E-008
   2.0000000000000018E-002     2.0841911307911687E-008
   2.0500000000000018E-002     2.2059587934109004E-008
   2.1000000000000019E-002     2.3345593902490691E-008
   2.1500000000000019E-002     2.4703462386810315E-008
   2.2000000000000020E-002     2.6137017883343105E-008
   2.2500000000000020E-002     2.7649855738332008E-008
   2.3000000000000020E-002     2.9246708166397184E-008
   2.3500000000000021E-002     3.0931627037489307E-008
   2.4000000000000021E-002     3.2709138508835167E-008
   2.4500000000000022E-002     3.4584111574531562E-008
   2.5000000000000022E-002     3.6561694116699073E-008
   2.5500000000000023E-002     3.8647829825322333E-008
   2.6000000000000023E-002     4.0847922377906798E-008
   2.6500000000000024E-002     4.3167418084522069E-008
   2.7000000000000024E-002     4.5612392085558895E-008
   2.7500000000000024E-002     4.8189885859528658E-008
   2.8000000000000025E-002     5.0906194815070194E-008
   2.8500000000000025E-002     5.3769202423836759E-008
   2.9000000000000026E-002     5.6785584234830822E-008
   2.9500000000000026E-002     5.9964385457078606E-008
   3.0000000000000027E-002     6.3313294162981038E-008
   3.0500000000000027E-002     6.6840122769917798E-008
   3.1000000000000028E-002     7.0554548869949940E-008
   3.1500000000000028E-002     7.4465980048898928E-008
   3.2000000000000028E-002     7.8584641016732348E-008