 -0.23999999999999999          0.0000000000000000     
 -0.23949999999999999          0.0000000000000000     
 -0.23899999999999999          0.0000000000000000     
 -0.23849999999999999          5.9355136972514518E-015
 -0.23799999999999999          3.1648261109638634E-014
 -0.23749999999999999          8.3994474011756179E-014
 -0.23699999999999999          1.2653261912116470E-013
 -0.23649999999999999          3.5186880260316001E-014
 -0.23599999999999999         -4.2090563664809492E-013
 -0.23549999999999999         -1.5298160121047512E-012
 -0.23499999999999999         -3.4847902237413327E-012
 -0.23449999999999999         -6.1309130311988159E-012
 -0.23399999999999999         -8.6670232361879867E-012
 -0.23349999999999999         -9.4199706634918738E-012
 -0.23299999999999998         -5.8506876394825397E-012
 -0.23249999999999998          5.0501488458348532E-012
 -0.23199999999999998          2.5883222078379497E-011
 -0.23149999999999998          5.7515582364906883E-011
 -0.23099999999999998          9.7525581356700546E-011
 -0.23049999999999998          1.3882142029558644E-010
 -0.22999999999999998          1.6897414805952575E-010
 -0.22949999999999998          1.7083231156235733E-010
 -0.22899999999999998          1.2485347585763379E-010
 -0.22849999999999998          1.3273498649422071E-011
 -0.22799999999999998         -1.7422683947772702E-010
 -0.22749999999999998         -4.3423846345899827E-010
 -0.22699999999999998         -7.4409064859374753E-010
 -0.22649999999999998         -1.0587432990307499E-009
 -0.22599999999999998         -1.3117502001182444E-009
 -0.22549999999999998         -1.4215064848011769E-009
 -0.22499999999999998         -1.3031256460832755E-009
 -0.22449999999999998         -8.8511329569126838E-010
 -0.22399999999999998         -1.2865733303854535E-010
 -0.22349999999999998          9.5381067640687359E-010
 -0.22299999999999998          2.2848964516100929E-009
 -0.22249999999999998          3.7174930842819491E-009
 -0.22199999999999998          5.0422531893381426E-009
 -0.22150000000000000          6.0088200419692789E-009
 -0.22100000000000000          6.3598302664462961E-009
 -0.22050000000000000          5.8740242207864131E-009
 -0.22000000000000000          4.4121587441092765E-009
 -0.21950000000000000          1.9576696937593849E-009
 -0.21900000000000000         -1.3563496041678889E-009
 -0.21850000000000000         -5.2412530329133966E-009
 -0.21800000000000000         -9.2724934024282023E-009
 -0.21750000000000000         -1.2935205938283663E-008
 -0.21700000000000000         -1.5691177574895332E-008
 -0.21650000000000000         -1.7058124991237431E-008
 -0.21600000000000000         -1.6688583477436306E-008
 -0.21550000000000000         -1.4434362808425674E-008
 -0.21500000000000000         -1.0383707873597354E-008
 -0.21450000000000000         -4.8620263497353544E-009
 -0.21400000000000000          1.6066903922940827E-009
 -0.21350000000000000          8.3733135530931524E-009
 -0.21299999999999999          1.4760474798266035E-008
 -0.21249999999999999          2.0165357106184524E-008
 -0.21199999999999999          2.4149035848316005E-008
 -0.21149999999999999          2.6493160972314367E-008
 -0.21099999999999999          2.7211423611649076E-008
 -0.21049999999999999          2.6510509950061020E-008
 -0.20999999999999999          2.4707127857780288E-008
 -0.20949999999999999          2.2117202934857125E-008
 -0.20899999999999999          1.8942024341832411E-008
 -0.20849999999999999          1.5179552501044536E-008
 -0.20799999999999999          1.0586946566972655E-008
 -0.20749999999999999          4.7123469426068781E-009
 -0.20699999999999999         -2.9993551064574665E-009
 -0.20649999999999999         -1.3038672450486734E-008
 -0.20599999999999999         -2.5628800476666074E-008
 -0.20549999999999999         -4.0528600022645528E-008
 -0.20499999999999999         -5.6887489725346565E-008
 -0.20449999999999999         -7.3195401901282774E-008
 -0.20399999999999999         -8.7358688659050053E-008
 -0.20349999999999999         -9.6912438193478196E-008
 -0.20299999999999999         -9.9354016499403475E-008
 -0.20249999999999999         -9.2555441787769383E-008
 -0.20199999999999999         -7.5192569819583404E-008
 -0.20149999999999998         -4.7113438469256379E-008
 -0.20099999999999998         -9.5723760007946662E-009
 -0.20049999999999998          3.4732572950836881E-008
 -0.19999999999999998          8.1849317366855441E-008
 -0.19949999999999998          1.2698447130964746E-007
 -0.19899999999999998          1.6509270312948165E-007
 -0.19849999999999998          1.9156091025704705E-007
 -0.19799999999999998          2.0288081058533518E-007
 -0.19749999999999998          1.9719505462130555E-007
 -0.19699999999999998          1.7461632878575719E-007
 -0.19649999999999998          1.3725410301060321E-007
 -0.19600000000000001          8.8923788910494675E-008
 -0.19550000000000001          3.4581394480116139E-008
 -0.19500000000000001         -2.0432579645924313E-008
 -0.19450000000000001         -7.1204791052852041E-008
 -0.19400000000000001         -1.1397106526516071E-007
 -0.19350000000000001         -1.4660793174480552E-007
 -0.19300000000000000         -1.6878430174619234E-007
 -0.19250000000000000         -1.8173413581520568E-007
 -0.19200000000000000         -1.8767044130073290E-007
 -0.19150000000000000         -1.8894123487776918E-007
 -0.19100000000000000         -1.8708987117909527E-007
 -0.19050000000000000         -1.8200777101934484E-007
 -0.19000000000000000         -1.7137425338039329E-007
 -0.18950000000000000         -1.5053903672215201E-007
 -0.18900000000000000         -1.1293008923982638E-007
 -0.18850000000000000         -5.0970458372269650E-008
 -0.18800000000000000          4.2591039139440678E-008
 -0.18750000000000000          1.7315646130307318E-007
 -0.18700000000000000          3.4279831479866265E-007
 -0.18650000000000000          5.4910763433883723E-007
 -0.18600000000000000          7.8463174853678388E-007
 -0.18550000000000000          1.0370178016599779E-006
 -0.18500000000000000          1.2899813324846769E-006
 -0.18450000000000000          1.5249691273735576E-006
 -0.18400000000000000          1.7233315367993345E-006
 -0.18350000000000000          1.8687132913507579E-006
 -0.18300000000000000          1.9492633895884433E-006
 -0.18250000000000000          1.9594098273058691E-006
 -0.18200000000000000          1.9007586275309804E-006
 -0.18149999999999999          1.7821355504930564E-006
 -0.18099999999999999          1.6185633927880102E-006
 -0.18049999999999999          1.4294739702580298E-006
 -0.17999999999999999          1.2362727164343230E-006
 -0.17949999999999999          1.0597221099624821E-006
 -0.17899999999999999          9.1753364349059838E-007
 -0.17849999999999999          8.2242819688361985E-007
 -0.17799999999999999          7.8113204170350290E-007
 -0.17749999999999999          7.9419804750697713E-007
 -0.17699999999999999          8.5686145950138152E-007
 -0.17649999999999999          9.6062166213925304E-007
 -0.17599999999999999          1.0952271402196851E-006
 -0.17549999999999999          1.2508421108060256E-006
 -0.17499999999999999          1.4198634236317245E-006
 -0.17449999999999999          1.5981815997883273E-006
 -0.17399999999999999          1.7857043652328478E-006
 -0.17349999999999999          1.9859453011147194E-006
 -0.17299999999999999          2.2049918896946989E-006
 -0.17249999999999999          2.4498664844782704E-006
 -0.17199999999999999          2.7267606294122138E-006
 -0.17149999999999999          3.0393556708277252E-006
 -0.17099999999999999          3.3875738009508320E-006
 -0.17049999999999998          3.7671974834660041E-006
 -0.16999999999999998          4.1697248838424766E-006
 -0.16949999999999998          4.5835972348073939E-006
 -0.16899999999999998          4.9956670495938324E-006
 -0.16849999999999998          5.3930739502958862E-006
 -0.16799999999999998          5.7651423388549317E-006
 -0.16749999999999998          6.1051062685661751E-006
 -0.16699999999999998          6.4112425303569393E-006
 -0.16649999999999998          6.6875198434572064E-006
 -0.16599999999999998          6.9432183999191504E-006
 -0.16549999999999998          7.1921659461388815E-006
 -0.16499999999999998          7.4511327578914046E-006
 -0.16449999999999998          7.7380965160273153E-006
 -0.16399999999999998          8.0705210763402987E-006
 -0.16349999999999998          8.4634148208983819E-006
 -0.16299999999999998          8.9280189912473123E-006
 -0.16249999999999998          9.4709434114311333E-006
 -0.16199999999999998          1.0094238277351480E-005
 -0.16149999999999998          1.0795430525708824E-005
 -0.16099999999999998          1.1568743480177534E-005
 -0.16049999999999998          1.2406478841439608E-005
 -0.15999999999999998          1.3300545329938817E-005
 -0.15949999999999998          1.4244112259975134E-005
 -0.15899999999999997          1.5233077752418268E-005
 -0.15849999999999997          1.6266651440296393E-005
 -0.15799999999999997          1.7348706436002602E-005
 -0.15749999999999997          1.8486327208010824E-005
 -0.15699999999999997          1.9689916579857451E-005
 -0.15649999999999997          2.0971050232173326E-005
 -0.15599999999999997          2.2341256642581022E-005
 -0.15549999999999997          2.3809420736749465E-005
 -0.15499999999999997          2.5380961715667143E-005
 -0.15449999999999997          2.7057088918386572E-005
 -0.15399999999999997          2.8834265325482507E-005
 -0.15349999999999997          3.0704402466155044E-005
 -0.15299999999999997          3.2658435554459996E-005
 -0.15249999999999997          3.4686860808430294E-005
 -0.15200000000000000          3.6783417031383361E-005
 -0.15150000000000000          3.8947353304551784E-005
 -0.15100000000000000          4.1184812043198801E-005
 -0.15049999999999999          4.3510886553111395E-005
 -0.14999999999999999          4.5949178531931802E-005
 -0.14949999999999999          4.8527232683397918E-005
 -0.14899999999999999          5.1279236921901092E-005
 -0.14849999999999999          5.4236559314165384E-005
 -0.14799999999999999          5.7427676850841817E-005
 -0.14749999999999999          6.0874245048124154E-005
 -0.14699999999999999          6.4587209393639848E-005
 -0.14649999999999999          6.8569287139251937E-005
 -0.14599999999999999          7.2814235813143031E-005
 -0.14549999999999999          7.7309585116158339E-005
 -0.14499999999999999          8.2041505771565995E-005
 -0.14449999999999999          8.6999158622215770E-005
 -0.14399999999999999          9.2179673603912300E-005
 -0.14349999999999999          9.7591330243184939E-005
 -0.14299999999999999          1.0325379360269011E-004
 -0.14249999999999999          1.0919870391982786E-004
 -0.14199999999999999          1.1546706060036138E-004
 -0.14149999999999999          1.2211034047085429E-004
 -0.14099999999999999          1.2917083327408104E-004
 -0.14049999999999999          1.3669325260642779E-004
 -0.13999999999999999          1.4471174566908920E-004
 -0.13949999999999999          1.5324303134799867E-004
 -0.13899999999999998          1.6230012297766325E-004
 -0.13849999999999998          1.7188151678548095E-004
 -0.13799999999999998          1.8198223615045406E-004
 -0.13749999999999998          1.9259984572728839E-004
 -0.13699999999999998          2.0373248309739909E-004
 -0.13649999999999998          2.1539293100181119E-004
 -0.13599999999999998          2.2760259703101488E-004
 -0.13550000000000001          2.4040550311039884E-004
 -0.13500000000000001          2.5385294820959043E-004
 -0.13450000000000001          2.6800359219155805E-004
 -0.13400000000000001          2.8292608181948486E-004
 -0.13350000000000001          2.9867981589092068E-004
 -0.13300000000000001          3.1533077167387460E-004
 -0.13250000000000001          3.3292810171185939E-004
 -0.13200000000000001          3.5151569848780329E-004
 -0.13150000000000001          3.7113326355040334E-004
 -0.13100000000000001          3.9181361850458996E-004
 -0.13050000000000000          4.1358131730513767E-004
 -0.13000000000000000          4.3648336008647901E-004
 -0.12950000000000000          4.6055488084119855E-004
 -0.12900000000000000          4.8586420475692270E-004
 -0.12850000000000000          5.1247143687949506E-004
 -0.12800000000000000          5.4044183333483127E-004
 -0.12750000000000000          5.6987765494460451E-004
 -0.12700000000000000          6.0084290081619158E-004
 -0.12650000000000000          6.3342944818990156E-004
 -0.12600000000000000          6.6769994195708536E-004
 -0.12550000000000000          7.0374664500041212E-004
 -0.12499999999999999          7.4162226989388062E-004
 -0.12449999999999999          7.8139785379956043E-004
 -0.12399999999999999          8.2314969886703999E-004
 -0.12349999999999998          8.6694445830215070E-004
 -0.12299999999999998          9.1287046157291041E-004
 -0.12249999999999998          9.6103622103740102E-004
 -0.12199999999999998          1.0115703691251053E-003
 -0.12149999999999998          1.0645953089743116E-003
 -0.12099999999999998          1.1202559214545465E-003
 -0.12049999999999998          1.1787013579015113E-003
 -0.12000000000000000          1.2400570883167254E-003
 -0.11950000000000000          1.3045252114772042E-003
 -0.11899999999999999          1.3721959549934755E-003
 -0.11849999999999999          1.4432234516497254E-003
 -0.11799999999999999          1.5177702161623492E-003
 -0.11749999999999999          1.5959523423030677E-003
 -0.11699999999999999          1.6779273292989072E-003
 -0.11649999999999999          1.7638287345098367E-003
 -0.11599999999999999          1.8538338248080739E-003
 -0.11549999999999999          1.9481225568876732E-003
 -0.11499999999999999          2.0468628246290352E-003
 -0.11449999999999999          2.1502506631474634E-003
 -0.11399999999999999          2.2585268421688167E-003
 -0.11349999999999999          2.3719233814106372E-003
 -0.11299999999999999          2.4906361448933339E-003
 -0.11249999999999999          2.6149876358500515E-003
 -0.11199999999999999          2.7452003435491997E-003
 -0.11149999999999999          2.8814779113274852E-003
 -0.11099999999999999          3.0240583834365772E-003
 -0.11049999999999999          3.1731627914512385E-003
 -0.10999999999999999          3.3290343288746448E-003
 -0.10949999999999999          3.4920043364811224E-003
 -0.10899999999999999          3.6623166214449256E-003
 -0.10849999999999999          3.8403056363204360E-003
 -0.10799999999999998          4.0264170223342803E-003
 -0.10749999999999998          4.2209345321003715E-003
 -0.10699999999999998          4.4243149870224867E-003
 -0.10649999999999998          4.6369462038431571E-003
 -0.10599999999999998          4.8591532040012323E-003
 -0.10549999999999998          5.0915043879508799E-003
 -0.10499999999999998          5.3342038551702428E-003
 -0.10449999999999998          5.5875270317029303E-003
 -0.10399999999999998          5.8520362799476845E-003
 -0.10349999999999998          6.1280861603295340E-003
 -0.10299999999999998          6.4160231988371463E-003
 -0.10249999999999998          6.7163886591011454E-003
 -0.10199999999999998          7.0297604446588301E-003
 -0.10149999999999998          7.3567091523045573E-003
 -0.10099999999999998          7.6978551900700673E-003
 -0.10049999999999998          8.0536543314544337E-003
  -9.9999999999999978E-002     8.4248637636895555E-003
  -9.9499999999999977E-002     8.8118364662132069E-003
  -9.8999999999999977E-002     9.2152246356244621E-003
  -9.8499999999999976E-002     9.6357070722782670E-003
  -9.7999999999999976E-002     1.0073818821610556E-002
  -9.7499999999999976E-002     1.0530300876427669E-002
  -9.6999999999999975E-002     1.1005696598635983E-002
  -9.6499999999999975E-002     1.1500645476330019E-002
  -9.5999999999999974E-002     1.2015816829651374E-002
  -9.5500000000000002E-002     1.2552171680425876E-002
  -9.5000000000000001E-002     1.3110468359434121E-002
  -9.4500000000000001E-002     1.3691746798087817E-002
  -9.4000000000000000E-002     1.4296525437327326E-002
  -9.3500000000000000E-002     1.4926020300081902E-002
  -9.2999999999999999E-002     1.5581014092474740E-002
  -9.2499999999999999E-002     1.6262497133140080E-002
  -9.1999999999999998E-002     1.6971526238642967E-002
  -9.1499999999999998E-002     1.7708894700384864E-002
  -9.0999999999999998E-002     1.8475314162835304E-002
  -9.0499999999999997E-002     1.9271625588512937E-002
  -8.9999999999999997E-002     2.0099369051510427E-002
  -8.9499999999999996E-002     2.0958794594355540E-002
  -8.8999999999999996E-002     2.1851367202092839E-002
  -8.8499999999999995E-002     2.2778280580904871E-002
  -8.7999999999999995E-002     2.3741155039475527E-002
  -8.7499999999999994E-002     2.4740908064493437E-002
  -8.6999999999999994E-002     2.5779266034260541E-002
  -8.6499999999999994E-002     2.6857579711412678E-002
  -8.5999999999999993E-002     2.7977493551253008E-002
  -8.5499999999999993E-002     2.9139531239990746E-002
  -8.4999999999999992E-002     3.0345194610997363E-002
  -8.4499999999999992E-002     3.1595541231832336E-002
  -8.3999999999999991E-002     3.2892373801683771E-002
  -8.3499999999999991E-002     3.4236314279017827E-002
  -8.2999999999999990E-002     3.5629295839649883E-002
  -8.2499999999999990E-002     3.7072123047195399E-002
  -8.1999999999999990E-002     3.8567779430784557E-002
  -8.1499999999999989E-002     4.0118088761227681E-002
  -8.0999999999999989E-002     4.1723600061116424E-002
  -8.0499999999999988E-002     4.3386180598222843E-002
  -7.9999999999999988E-002     4.5109380230669904E-002
  -7.9499999999999987E-002     4.6893331914687600E-002
  -7.8999999999999987E-002     4.8740758598684222E-002
  -7.8499999999999986E-002     5.0654597432898532E-002
  -7.7999999999999986E-002     5.2635119593977486E-002
  -7.7499999999999986E-002     5.4685549585464566E-002
  -7.6999999999999985E-002     5.6805243297257169E-002
  -7.6499999999999985E-002     5.8997442934803468E-002
  -7.5999999999999984E-002     6.1263216912844226E-002
  -7.5499999999999984E-002     6.3603964021933135E-002
  -7.4999999999999983E-002     6.6023698114198143E-002
  -7.4499999999999983E-002     6.8524050842853818E-002
  -7.3999999999999982E-002     7.1108495502615596E-002
  -7.3499999999999982E-002     7.3781798016742964E-002
  -7.2999999999999982E-002     7.6540876103637745E-002
  -7.2499999999999981E-002     7.9391233411112885E-002
  -7.1999999999999981E-002     8.2337064607950997E-002
  -7.1499999999999980E-002     8.5379490874815958E-002
  -7.0999999999999980E-002     8.8518348655012569E-002
  -7.0499999999999979E-002     9.1759130408857484E-002
  -6.9999999999999979E-002     9.5102745952448151E-002
  -6.9499999999999978E-002     9.8550970314896735E-002
  -6.8999999999999978E-002    0.10210514435674999     
  -6.8499999999999978E-002    0.10576862280156750     
  -6.7999999999999977E-002    0.10954134700269874     
  -6.7499999999999977E-002    0.11343395516655799     
  -6.6999999999999976E-002    0.11744306054325576     
  -6.6499999999999976E-002    0.12157743443862579     
  -6.5999999999999975E-002    0.12583864828360997     
  -6.5499999999999975E-002    0.13022804359372833     
  -6.4999999999999974E-002    0.13474683632450074     
  -6.4499999999999974E-002    0.13940411153485133     
  -6.4000000000000001E-002    0.14419966663694639     
  -6.3500000000000001E-002    0.14913494844260194     
  -6.3000000000000000E-002    0.15421217836888135     
  -6.2500000000000000E-002    0.15942740778888703     
  -6.2000000000000000E-002    0.16479119013890908     
  -6.1499999999999999E-002    0.17030809554631951     
  -6.0999999999999999E-002    0.17597753589854490     
  -6.0499999999999998E-002    0.18180575173105756     
  -5.9999999999999998E-002    0.18779388527845059     
  -5.9499999999999997E-002    0.19394415622279454     
  -5.8999999999999997E-002    0.20026792208808453     
  -5.8499999999999996E-002    0.20675967271209553     
  -5.7999999999999996E-002    0.21342654631172175     
  -5.7499999999999996E-002    0.22027057152955817     
  -5.6999999999999995E-002    0.22729516876820566     
  -5.6499999999999995E-002    0.23450827564603693     
  -5.5999999999999994E-002    0.24190188390455158     
  -5.5499999999999994E-002    0.24948408802912847     
  -5.4999999999999993E-002    0.25725351072692682     
  -5.4499999999999993E-002    0.26522998343249998     
  -5.3999999999999992E-002    0.27341075481849308     
  -5.3499999999999992E-002    0.28178309150064773     
  -5.2999999999999992E-002    0.29036338023400732     
  -5.2499999999999991E-002    0.29914392322683259     
  -5.1999999999999991E-002    0.30813358334445506     
  -5.1499999999999990E-002    0.31733669135361059     
  -5.0999999999999990E-002    0.32676352949243004     
  -5.0499999999999989E-002    0.33640089606040657     
  -4.9999999999999989E-002    0.34625599576808885     
  -4.9499999999999988E-002    0.35634207367097626     
  -4.8999999999999988E-002    0.36666452072430600     
  -4.8499999999999988E-002    0.37721201892935208     
  -4.7999999999999987E-002    0.38799212474322875     
  -4.7499999999999987E-002    0.39902427210637631     
  -4.6999999999999986E-002    0.41026652109337231     
  -4.6499999999999986E-002    0.42176732080714829     
  -4.5999999999999985E-002    0.43348430974520458     
  -4.5499999999999985E-002    0.44542720078476478     
  -4.4999999999999984E-002    0.45762149119221696     
  -4.4499999999999984E-002    0.47006213961723553     
  -4.3999999999999984E-002    0.48275103416406218     
  -4.3499999999999983E-002    0.49568026095367212     
  -4.2999999999999983E-002    0.50888992575994052     
  -4.2499999999999982E-002    0.52235639534931400     
  -4.1999999999999982E-002    0.53607725841782217     
  -4.1499999999999981E-002    0.55003466828824288     
  -4.0999999999999981E-002    0.56426135253331844     
  -4.0499999999999980E-002    0.57871592423179530     
  -3.9999999999999980E-002    0.59341149847003449     
  -3.9499999999999980E-002    0.60837205844304321     
  -3.8999999999999979E-002    0.62359142859681516     
  -3.8499999999999979E-002    0.63906254834094700     
  -3.7999999999999978E-002    0.65476628140738735     
  -3.7499999999999978E-002    0.67076843221240812     
  -3.6999999999999977E-002    0.68699866160463219     
  -3.6499999999999977E-002    0.70347208942564676     
  -3.5999999999999976E-002    0.72019390259002147     
  -3.5499999999999976E-002    0.73716015379700617     
  -3.4999999999999976E-002    0.75436563502282572     
  -3.4499999999999975E-002    0.77176052324589051     
  -3.3999999999999975E-002    0.78940563923159335     
  -3.3499999999999974E-002    0.80729860477503557     
  -3.2999999999999974E-002    0.82537305736047040     
  -3.2499999999999973E-002    0.84371790047377371     
  -3.1999999999999973E-002    0.86227868976340272     
  -3.1500000000000000E-002    0.88108592301710065     
  -3.1000000000000000E-002    0.90010649915248586     
  -3.0499999999999999E-002    0.91939943510234301     
  -2.9999999999999999E-002    0.93891939113094169     
  -2.9499999999999998E-002    0.95856132140600292     
  -2.8999999999999998E-002    0.97843897100741684     
  -2.8499999999999998E-002    0.99847696911873185     
  -2.7999999999999997E-002     1.0186475666202952     
  -2.7499999999999997E-002     1.0389424936797524     
  -2.6999999999999996E-002     1.0593093950752568     
  -2.6499999999999996E-002     1.0798776209703629     
  -2.5999999999999995E-002     1.1005628067821969     
  -2.5499999999999995E-002     1.1214078539736505     
  -2.4999999999999994E-002     1.1423789005013949     
  -2.4499999999999994E-002     1.1635441707166865     
  -2.3999999999999994E-002     1.1848772542097015     
  -2.3499999999999993E-002     1.2062595407689813     
  -2.2999999999999993E-002     1.2277361742397825     
  -2.2499999999999992E-002     1.2493496926408316     
  -2.1999999999999992E-002     1.2710160741367853     
  -2.1499999999999991E-002     1.2926430589182962     
  -2.0999999999999991E-002     1.3142859974471301     
  -2.0499999999999990E-002     1.3359263903995204     
  -1.9999999999999990E-002     1.3573967180530004     
  -1.9499999999999990E-002     1.3789007286940484     
  -1.8999999999999989E-002     1.4003812914372451     
  -1.8499999999999989E-002     1.4218621979033668     
  -1.7999999999999988E-002     1.4432507243344350     
  -1.7499999999999988E-002     1.4645698737255657     
  -1.6999999999999987E-002     1.4857748586002757     
  -1.6499999999999987E-002     1.5069856260914203     
  -1.5999999999999986E-002     1.5280563409463441     
  -1.5499999999999986E-002     1.5490279585466331     
  -1.4999999999999986E-002     1.5698299015871122     
  -1.4499999999999985E-002     1.5905292990423578     
  -1.3999999999999985E-002     1.6109179192840324     
  -1.3499999999999984E-002     1.6309858026566406     
  -1.2999999999999984E-002     1.6506912170319694     
  -1.2499999999999983E-002     1.6699875311923338     
  -1.1999999999999983E-002     1.6887008626843740     
  -1.1499999999999982E-002     1.7072606510942703     
  -1.0999999999999982E-002     1.7254428413973537     
  -1.0499999999999982E-002     1.7434024501659802     
  -9.9999999999999811E-003     1.7609441907750596     
  -9.4999999999999807E-003     1.7781644349770018     
  -8.9999999999999802E-003     1.7950618497506943     
  -8.4999999999999798E-003     1.8115745772237255     
  -7.9999999999999793E-003     1.8275365915594191     
  -7.4999999999999789E-003     1.8429186145914080     
  -6.9999999999999785E-003     1.8577694105319935     
  -6.4999999999999780E-003     1.8719582159451607     
  -5.9999999999999776E-003     1.8853691847516143     
  -5.4999999999999771E-003     1.8978984772992313     
  -4.9999999999999767E-003     1.9095122815816059     
  -4.4999999999999762E-003     1.9206678106492769     
  -3.9999999999999758E-003     1.9308557963316959     
  -3.4999999999999754E-003     1.9402780958179635     
  -2.9999999999999749E-003     1.9490688446654150     
  -2.4999999999999745E-003     1.9570955651732622     
  -1.9999999999999740E-003     1.9643997416122705     
  -1.4999999999999736E-003     1.9709411131972758     
  -9.9999999999997313E-004     1.9766191099213275     
  -4.9999999999997269E-004     1.9812011000772465     
   0.0000000000000000          1.9846558556799221     
   5.0000000000000044E-004     1.9869225169477081     
   1.0000000000000009E-003     1.9883284230026854     
   1.5000000000000013E-003     1.9882938008433584     
   2.0000000000000018E-003     1.9869447121597474     
   2.5000000000000022E-003     1.9843118865527241     
   3.0000000000000027E-003     1.9801388625103900     
   3.5000000000000031E-003     1.9750679380231233     
   4.0000000000000036E-003     1.9687291763019195     
   4.5000000000000040E-003     1.9613256693516563     
   5.0000000000000044E-003     1.9527785647614264     
   5.5000000000000049E-003     1.9429525934310465     
   6.0000000000000053E-003     1.9316457261301889     
   6.5000000000000058E-003     1.9189128702772131     
   7.0000000000000062E-003     1.9046450181050112     
   7.5000000000000067E-003     1.8888371990973294     
   8.0000000000000071E-003     1.8713434784689928     
   8.5000000000000075E-003     1.8517930392943351     
   9.0000000000000080E-003     1.8306780145001640     
   9.5000000000000084E-003     1.8076202555260661     
   1.0000000000000009E-002     1.7830375333795083     
   1.0500000000000009E-002     1.7566674257493569     
   1.1000000000000010E-002     1.7287950650684607     
   1.1500000000000010E-002     1.6988930459118428     
   1.2000000000000011E-002     1.6674465889052286     
   1.2500000000000011E-002     1.6347903348930730     
   1.3000000000000012E-002     1.5999945190565734     
   1.3500000000000012E-002     1.5635293760900444     
   1.4000000000000012E-002     1.5255914029645319     
   1.4500000000000013E-002     1.4855079358997254     
   1.5000000000000013E-002     1.4430385941134243     
   1.5500000000000014E-002     1.3981673517136834     
   1.6000000000000014E-002     1.3512359178414828     
   1.6500000000000015E-002     1.3013135732909886     
   1.7000000000000015E-002     1.2499381765978306     
   1.7500000000000016E-002     1.1961360422746807     
   1.8000000000000016E-002     1.1410378655528834     
   1.8500000000000016E-002     1.0838214162471989     
   1.9000000000000017E-002     1.0242911120771603     
   1.9500000000000017E-002    0.96336682989262457     
   2.0000000000000018E-002    0.89994049818962096     
   2.0500000000000018E-002    0.83476482523419659     
   2.1000000000000019E-002    0.76727184478246047     
   2.1500000000000019E-002    0.69728855561647429     
   2.2000000000000020E-002    0.62562714230847893     
   2.2500000000000020E-002    0.55090248381107187     
   2.3000000000000020E-002    0.47362309194825158     
   2.3500000000000021E-002    0.39400031887483111     
   2.4000000000000021E-002    0.31191069813771222     
   2.4500000000000022E-002    0.22800572196968871     
   2.5000000000000022E-002    0.14194916290603810     
   2.5500000000000023E-002     5.4226898444340144E-002
   2.6000000000000023E-002    -3.6111029687055041E-002
   2.6500000000000024E-002   -0.12777603144308713     
   2.7000000000000024E-002   -0.22208532741740328     
   2.7500000000000024E-002   -0.31865281979898574     
   2.8000000000000025E-002   -0.41691155007542768     
   2.8500000000000025E-002   -0.51717862627126010     
   2.9000000000000026E-002   -0.61883150574602208     
   2.9500000000000026E-002   -0.72334178042574315     
   3.0000000000000027E-002   -0.83069467902702510     
   3.0500000000000027E-002   -0.93967732332625653     
   3.1000000000000028E-002    -1.0506392531669153     
   3.1500000000000028E-002    -1.1644711301068642     
   3.2000000000000028E-002    -1.2806115417272426     