 -0.23999999999999999          0.0000000000000000     
 -0.23949999999999999          0.0000000000000000     
 -0.23899999999999999          0.0000000000000000     
 -0.23849999999999999          0.0000000000000000     
 -0.23799999999999999          1.4838785515861785E-021
 -0.23749999999999999          1.0879823503569804E-020
 -0.23699999999999999          4.1274388212861669E-020
 -0.23649999999999999          1.0330211649393117E-019
 -0.23599999999999999          1.7412654722857086E-019
 -0.23549999999999999          1.3972457442572488E-019
 -0.23499999999999999         -2.7713152621254950E-019
 -0.23449999999999999         -1.5651853140746013E-018
 -0.23399999999999999         -4.3859674692543974E-018
 -0.23349999999999999         -9.3735054240049829E-018
 -0.23299999999999998         -1.6716036787442568E-017
 -0.23249999999999998         -2.5521239957257022E-017
 -0.23199999999999998         -3.3063908512365236E-017
 -0.23149999999999998         -3.4135767592278092E-017
 -0.23099999999999998         -2.0828729839140875E-017
 -0.23049999999999998          1.6859710309120971E-017
 -0.22999999999999998          8.9253507563893967E-017
 -0.22949999999999998          2.0389084325260692E-016
 -0.22899999999999998          3.6123625838438187E-016
 -0.22849999999999998          5.4979506896375841E-016
 -0.22799999999999998          7.4167221779777436E-016
 -0.22749999999999998          8.8999263936069372E-016
 -0.22699999999999998          9.2975347347103723E-016
 -0.22649999999999998          7.8349157358585496E-016
 -0.22599999999999998          3.7254383284678566E-016
 -0.22549999999999998         -3.6634156815191413E-016
 -0.22499999999999998         -1.4606034492715827E-015
 -0.22449999999999998         -2.8806468937866828E-015
 -0.22399999999999998         -4.5219684217878340E-015
 -0.22349999999999998         -6.1954541736133121E-015
 -0.22299999999999998         -7.6304875626894638E-015
 -0.22249999999999998         -8.4942966378216614E-015
 -0.22199999999999998         -8.4287320277197893E-015
 -0.22150000000000000         -7.1026044298663250E-015
 -0.22100000000000000         -4.2742719384720241E-015
 -0.22050000000000000          1.4401796024552260E-016
 -0.22000000000000000          6.0308145579041786E-015
 -0.21950000000000000          1.3020651380455123E-014
 -0.21900000000000000          2.0499905551683891E-014
 -0.21850000000000000          2.7640071599902739E-014
 -0.21800000000000000          3.3469923050709421E-014
 -0.21750000000000000          3.6981651696143682E-014
 -0.21700000000000000          3.7259579221853357E-014
 -0.21650000000000000          3.3614711023920508E-014
 -0.21600000000000000          2.5705310226143002E-014
 -0.21550000000000000          1.3623763466392271E-014
 -0.21500000000000000         -2.0663749706013948E-015
 -0.21450000000000000         -2.0352436791009838E-014
 -0.21400000000000000         -3.9854006943930228E-014
 -0.21350000000000000         -5.8953899604490180E-014
 -0.21299999999999999         -7.5960468340337670E-014
 -0.21249999999999999         -8.9276916538601623E-014
 -0.21199999999999999         -9.7552030965560509E-014
 -0.21149999999999999         -9.9789884015702288E-014
 -0.21099999999999999         -9.5404442651010552E-014
 -0.21049999999999999         -8.4216144843792628E-014
 -0.20999999999999999         -6.6400218521295617E-014
 -0.20949999999999999         -4.2407511120859378E-014
 -0.20899999999999999         -1.2885497589542928E-014
 -0.20849999999999999          2.1372022660034931E-014
 -0.20799999999999999          5.9424425318148581E-014
 -0.20749999999999999          1.0012357123656881E-013
 -0.20699999999999999          1.4200078509603838E-013
 -0.20649999999999999          1.8312817195003676E-013
 -0.20599999999999999          2.2099588570911817E-013
 -0.20549999999999999          2.5245639343740222E-013
 -0.20499999999999999          2.7378474662844190E-013
 -0.20449999999999999          2.8089123715729119E-013
 -0.20399999999999999          2.6969887368450364E-013
 -0.20349999999999999          2.3666683053747168E-013
 -0.20299999999999999          1.7940667910777290E-013
 -0.20249999999999999          9.7308017091499839E-014
 -0.20199999999999999         -7.9295017666048346E-015
 -0.20149999999999998         -1.3196516534658294E-013
 -0.20099999999999998         -2.6777918946843175E-013
 -0.20049999999999998         -4.0598629746962018E-013
 -0.19999999999999998         -5.3551026978626087E-013
 -0.19949999999999998         -6.4457189896223198E-013
 -0.19899999999999998         -7.2188736925604891E-013
 -0.19849999999999998         -7.5792972554115124E-013
 -0.19799999999999998         -7.4608182133415477E-013
 -0.19749999999999998         -6.8351370930308133E-013
 -0.19699999999999998         -5.7164682832186392E-013
 -0.19649999999999998         -4.1612585442170739E-013
 -0.19600000000000001         -2.2629135444299610E-013
 -0.19550000000000001         -1.4225902634539542E-014
 -0.19500000000000001          2.0648487709289593E-013
 -0.19450000000000001          4.2208751040726339E-013
 -0.19400000000000001          6.1988898613413843E-013
 -0.19350000000000001          7.8919767217229002E-013
 -0.19300000000000000          9.2185436166529221E-013
 -0.19250000000000000          1.0123149709242519E-012
 -0.19200000000000000          1.0573420492862843E-012
 -0.19150000000000000          1.0554515089579716E-012
 -0.19100000000000000          1.0063256521327817E-012
 -0.19050000000000000          9.1042731752198036E-013
 -0.19000000000000000          7.6902706958633234E-013
 -0.18950000000000000          5.8478322285580316E-013
 -0.18900000000000000          3.6290462083803342E-013
 -0.18850000000000000          1.1279350239748962E-013
 -0.18800000000000000         -1.5006024618668260E-013
 -0.18750000000000000         -4.0226624597057788E-013
 -0.18700000000000000         -6.1118312057324189E-013
 -0.18650000000000000         -7.3440039883028322E-013
 -0.18600000000000000         -7.2034072717756523E-013
 -0.18550000000000000         -5.1012312887079484E-013
 -0.18500000000000000         -4.0651106755704487E-014
 -0.18450000000000000          7.5131623793470393E-013
 -0.18400000000000000          1.9245258998810905E-012
 -0.18350000000000000          3.5285684366713032E-012
 -0.18300000000000000          5.5997897305547223E-012
 -0.18250000000000000          8.1583273232487638E-012
 -0.18200000000000000          1.1206716549543646E-011
 -0.18149999999999999          1.4730294782338107E-011
 -0.18099999999999999          1.8699406632657466E-011
 -0.18049999999999999          2.3073161570792612E-011
 -0.17999999999999999          2.7804283516320814E-011
 -0.17949999999999999          3.2844472748731989E-011
 -0.17899999999999999          3.8149594355520279E-011
 -0.17849999999999999          4.3684098109997229E-011
 -0.17799999999999999          4.9424207233392475E-011
 -0.17749999999999999          5.5359601329117820E-011
 -0.17699999999999999          6.1493545643029435E-011
 -0.17649999999999999          6.7841699559127216E-011
 -0.17599999999999999          7.4430012950782802E-011
 -0.17549999999999999          8.1292139203471553E-011
 -0.17499999999999999          8.8466969343039265E-011
 -0.17449999999999999          9.5996764494936318E-011
 -0.17399999999999999          1.0392610914405842E-010
 -0.17349999999999999          1.1230188073713886E-010
 -0.17299999999999999          1.2117413191903216E-010
 -0.17249999999999999          1.3059763915077089E-010
 -0.17199999999999999          1.4063359881739006E-010
 -0.17149999999999999          1.5135125976986135E-010
 -0.17099999999999999          1.6282874827361790E-010
 -0.17049999999999998          1.7515314022052300E-010
 -0.16999999999999998          1.8841933297019891E-010
 -0.16949999999999998          2.0272794621594485E-010
 -0.16899999999999998          2.1818247377830405E-010
 -0.16849999999999998          2.3488591221519705E-010
 -0.16799999999999998          2.5293762087786766E-010
 -0.16749999999999998          2.7243060017965602E-010
 -0.16699999999999998          2.9344987164820059E-010
 -0.16649999999999998          3.1607197732534350E-010
 -0.16599999999999998          3.4036593471275147E-010
 -0.16549999999999998          3.6639569529269884E-010
 -0.16499999999999998          3.9422349275933576E-010
 -0.16449999999999998          4.2391408944982125E-010
 -0.16399999999999998          4.5553921941778386E-010
 -0.16349999999999998          4.8918195455344405E-010
 -0.16299999999999998          5.2494056075387345E-010
 -0.16249999999999998          5.6293121695430619E-010
 -0.16199999999999998          6.0328952801761892E-010
 -0.16149999999999998          6.4617145175003304E-010
 -0.16099999999999998          6.9175226230043080E-010
 -0.16049999999999998          7.4022519303356869E-010
 -0.15999999999999998          7.9179977283529814E-010
 -0.15949999999999998          8.4669944691588915E-010
 -0.15899999999999997          9.0516017459665480E-010
 -0.15849999999999997          9.6742921821238957E-010
 -0.15799999999999997          1.0337648951753457E-009
 -0.15749999999999997          1.1044377469467098E-009
 -0.15699999999999997          1.1797321993002824E-009
 -0.15649999999999997          1.2599491407535509E-009
 -0.15599999999999997          1.3454088004841232E-009
 -0.15549999999999997          1.4364537676248232E-009
 -0.15499999999999997          1.5334511544256099E-009
 -0.15449999999999997          1.6367936705339903E-009
 -0.15399999999999997          1.7469005090108663E-009
 -0.15349999999999997          1.8642160428775783E-009
 -0.15299999999999997          1.9892076099726876E-009
 -0.15249999999999997          2.1223636869301468E-009
 -0.15200000000000000          2.2641916642751872E-009
 -0.15150000000000000          2.4152155145357551E-009
 -0.15100000000000000          2.5759761363002641E-009
 -0.15049999999999999          2.7470329162145659E-009
 -0.14999999999999999          2.9289673255352798E-009
 -0.14949999999999999          3.1223892006257499E-009
 -0.14899999999999999          3.3279426896597585E-009
 -0.14849999999999999          3.5463157181966174E-009
 -0.14799999999999999          3.7782483982101778E-009
 -0.14749999999999999          4.0245376255775498E-009
 -0.14699999999999999          4.2860459056314895E-009
 -0.14649999999999999          4.5637007579483298E-009
 -0.14599999999999999          4.8584980522943131E-009
 -0.14549999999999999          5.1714987910431872E-009
 -0.14499999999999999          5.5038272145193958E-009
 -0.14449999999999999          5.8566654852085466E-009
 -0.14399999999999999          6.2312535941824217E-009
 -0.14349999999999999          6.6288866349846970E-009
 -0.14299999999999999          7.0509180571307395E-009
 -0.14249999999999999          7.4987625972201639E-009
 -0.14199999999999999          7.9739073372694739E-009
 -0.14149999999999999          8.4779182547614099E-009
 -0.14099999999999999          9.0124562526571860E-009
 -0.14049999999999999          9.5792874924614861E-009
 -0.13999999999999999          1.0180292048536055E-008
 -0.13949999999999999          1.0817474483564748E-008
 -0.13899999999999998          1.1492967551226705E-008
 -0.13849999999999998          1.2209036193225323E-008
 -0.13799999999999998          1.2968074274858517E-008
 -0.13749999999999998          1.3772607921129888E-008
 -0.13699999999999998          1.4625291919749995E-008
 -0.13649999999999998          1.5528908901040857E-008
 -0.13599999999999998          1.6486374807553952E-008
 -0.13550000000000001          1.7500741286276539E-008
 -0.13500000000000001          1.8575210106404894E-008
 -0.13450000000000001          1.9713140838680260E-008
 -0.13400000000000001          2.0918072323667693E-008
 -0.13350000000000001          2.2193736091270657E-008
 -0.13300000000000001          2.3544069119128657E-008
 -0.13250000000000001          2.4973235180938212E-008
 -0.13200000000000001          2.6485632292402435E-008
 -0.13150000000000001          2.8085909011894154E-008
 -0.13100000000000001          2.9778966811919237E-008
 -0.13050000000000000          3.1569980556123814E-008
 -0.13000000000000000          3.3464392673818283E-008
 -0.12950000000000000          3.5467923837701267E-008
 -0.12900000000000000          3.7586592255956098E-008
 -0.12850000000000000          3.9826727182370395E-008
 -0.12800000000000000          4.2194982614867843E-008
 -0.12750000000000000          4.4698343840715658E-008
 -0.12700000000000000          4.7344177414733024E-008
 -0.12650000000000000          5.0140222780678910E-008
 -0.12600000000000000          5.3094624192255097E-008
 -0.12550000000000000          5.6215944981320995E-008
 -0.12499999999999999          5.9513210280287443E-008
 -0.12449999999999999          6.2995875981809892E-008
 -0.12399999999999999          6.6673894507786502E-008
 -0.12349999999999998          7.0557701751046899E-008
 -0.12299999999999998          7.4658241468521061E-008
 -0.12249999999999998          7.8986999755868552E-008
 -0.12199999999999998          8.3556015678791014E-008
 -0.12149999999999998          8.8377925366601330E-008
 -0.12099999999999998          9.3465981546808798E-008
 -0.12049999999999998          9.8834106065789536E-008
 -0.12000000000000000          1.0449690876052150E-007
 -0.11950000000000000          1.1046971803437952E-007
 -0.11899999999999999          1.1676866954087783E-007
 -0.11849999999999999          1.2341066395818277E-007
 -0.11799999999999999          1.3041345067050541E-007
 -0.11749999999999999          1.3779568536142271E-007
 -0.11699999999999999          1.4557691665235838E-007
 -0.11649999999999999          1.5377762264915472E-007
 -0.11599999999999999          1.6241929520451698E-007
 -0.11549999999999999          1.7152441413177198E-007
 -0.11499999999999999          1.8111656704948370E-007
 -0.11449999999999999          1.9122044449210148E-007
 -0.11399999999999999          2.0186187811080416E-007
 -0.11349999999999999          2.1306795581079188E-007
 -0.11299999999999999          2.2486701708237470E-007
 -0.11249999999999999          2.3728874347209590E-007
 -0.11199999999999999          2.5036421008674517E-007
 -0.11149999999999999          2.6412596136451601E-007
 -0.11099999999999999          2.7860808399649907E-007
 -0.11049999999999999          2.9384623699685090E-007
 -0.10999999999999999          3.0987767109527055E-007
 -0.10949999999999999          3.2674136786471212E-007
 -0.10899999999999999          3.4447806095558819E-007
 -0.10849999999999999          3.6313031307975908E-007
 -0.10799999999999998          3.8274265712888443E-007
 -0.10749999999999998          4.0336162445471306E-007
 -0.10699999999999998          4.2503582434393370E-007
 -0.10649999999999998          4.4781609718259365E-007
 -0.10599999999999998          4.7175563879677138E-007
 -0.10549999999999998          4.9690989820986964E-007
 -0.10499999999999998          5.2333704689295934E-007
 -0.10449999999999998          5.5109777698459669E-007
 -0.10399999999999998          5.8025538156199811E-007
 -0.10349999999999998          6.1087598747443912E-007
 -0.10299999999999998          6.4302858245119195E-007
 -0.10249999999999998          6.7678518523852836E-007
 -0.10199999999999998          7.1222090366544396E-007
 -0.10149999999999998          7.4941403179319516E-007
 -0.10099999999999998          7.8844633969357366E-007
 -0.10049999999999998          8.2940313238967368E-007
  -9.9999999999999978E-002     8.7237334847509103E-007
  -9.9499999999999977E-002     9.1744978582604618E-007
  -9.8999999999999977E-002     9.6472927295569747E-007
  -9.8499999999999976E-002     1.0143125485505362E-006
  -9.7999999999999976E-002     1.0663046983272162E-006
  -9.7499999999999976E-002     1.1208152777444036E-006
  -9.6999999999999975E-002     1.1779584051594942E-006
  -9.6499999999999975E-002     1.2378529915225332E-006
  -9.5999999999999974E-002     1.3006227068203398E-006
  -9.5500000000000002E-002     1.3663964270996969E-006
  -9.5000000000000001E-002     1.4353082409492240E-006
  -9.4500000000000001E-002     1.5074975743885010E-006
  -9.4000000000000000E-002     1.5831099613341002E-006
  -9.3500000000000000E-002     1.6622964439766231E-006
  -9.2999999999999999E-002     1.7452144015563635E-006
  -9.2499999999999999E-002     1.8320277629921467E-006
  -9.1999999999999998E-002     1.9229064459738992E-006
  -9.1499999999999998E-002     2.0180282408761869E-006
  -9.0999999999999998E-002     2.1175771568558866E-006
  -9.0499999999999997E-002     2.2217448643548750E-006
  -8.9999999999999997E-002     2.3307306023825576E-006
  -8.9499999999999996E-002     2.4447410481632295E-006
  -8.8999999999999996E-002     2.5639911677396116E-006
  -8.8499999999999995E-002     2.6887041864122102E-006
  -8.7999999999999995E-002     2.8191116304651408E-006
  -8.7499999999999994E-002     2.9554544127520909E-006
  -8.6999999999999994E-002     3.0979825804424537E-006
  -8.6499999999999994E-002     3.2469556411440798E-006
  -8.5999999999999993E-002     3.4026430153700006E-006
  -8.5499999999999993E-002     3.5653247783843102E-006
  -8.4999999999999992E-002     3.7352912273405717E-006
  -8.4499999999999992E-002     3.9128442261667827E-006
  -8.3999999999999991E-002     4.0982958829919699E-006
  -8.3499999999999991E-002     4.2919709821432745E-006
  -8.2999999999999990E-002     4.4942050620115942E-006
  -8.2499999999999990E-002     4.7053464741958089E-006
  -8.1999999999999990E-002     4.9257557175046230E-006
  -8.1499999999999989E-002     5.1558069045939305E-006
  -8.0999999999999989E-002     5.3958877231203650E-006
  -8.0499999999999988E-002     5.6463997610744560E-006
  -7.9999999999999988E-002     5.9077582606934009E-006
  -7.9499999999999987E-002     6.1803937754005620E-006
  -7.8999999999999987E-002     6.4647529322100645E-006
  -7.8499999999999986E-002     6.7612970516292239E-006
  -7.7999999999999986E-002     7.0705050158933906E-006
  -7.7499999999999986E-002     7.3928710743249344E-006
  -7.6999999999999985E-002     7.7289091230680235E-006
  -7.6499999999999985E-002     8.0791477440320761E-006
  -7.5999999999999984E-002     8.4441361740763307E-006
  -7.5499999999999984E-002     8.8244411407951195E-006
  -7.4999999999999983E-002     9.2206468010002034E-006
  -7.4499999999999983E-002     9.6333584385746138E-006
  -7.3999999999999982E-002     1.0063200636699771E-005
  -7.3499999999999982E-002     1.0510819218245855E-005
  -7.2999999999999982E-002     1.0976884566199166E-005
  -7.2499999999999981E-002     1.1462084543802636E-005
  -7.1999999999999981E-002     1.1967132865098510E-005
  -7.1499999999999980E-002     1.2492764981157087E-005
  -7.0999999999999980E-002     1.3039741381355045E-005
  -7.0499999999999979E-002     1.3608848450802965E-005
  -6.9999999999999979E-002     1.4200895063813624E-005
  -6.9499999999999978E-002     1.4816716276538690E-005
  -6.8999999999999978E-002     1.5457176643934436E-005
  -6.8499999999999978E-002     1.6123162507693223E-005
  -6.7999999999999977E-002     1.6815590251737861E-005
  -6.7499999999999977E-002     1.7535402685486455E-005
  -6.6999999999999976E-002     1.8283574289354760E-005
  -6.6499999999999976E-002     1.9061107948882017E-005
  -6.5999999999999975E-002     1.9869034595050622E-005
  -6.5499999999999975E-002     2.0708420672042318E-005
  -6.4999999999999974E-002     2.1580364543697888E-005
  -6.4499999999999974E-002     2.2485996285424777E-005
  -6.4000000000000001E-002     2.3426478376868248E-005
  -6.3500000000000001E-002     2.4403008638807575E-005
  -6.3000000000000000E-002     2.5416823873758565E-005
  -6.2500000000000000E-002     2.6469192350659059E-005
  -6.2000000000000000E-002     2.7561417925684659E-005
  -6.1499999999999999E-002     2.8694839355045585E-005
  -6.0999999999999999E-002     2.9870838886327086E-005
  -6.0499999999999998E-002     3.1090833810893305E-005
  -5.9999999999999998E-002     3.2356280491217953E-005
  -5.9499999999999997E-002     3.3668674708851462E-005
  -5.8999999999999997E-002     3.5029554473580066E-005
  -5.8499999999999996E-002     3.6440504980160813E-005
  -5.7999999999999996E-002     3.7903142668870342E-005
  -5.7499999999999996E-002     3.9419134623626669E-005
  -5.6999999999999995E-002     4.0990197342175979E-005
  -5.6499999999999995E-002     4.2618082521076375E-005
  -5.5999999999999994E-002     4.4304595301594655E-005
  -5.5499999999999994E-002     4.6051584152222664E-005
  -5.4999999999999993E-002     4.7860945730295867E-005
  -5.4499999999999993E-002     4.9734616870987595E-005
  -5.3999999999999992E-002     5.1674599112886343E-005
  -5.3499999999999992E-002     5.3682933416644994E-005
  -5.2999999999999992E-002     5.5761709879266051E-005
  -5.2499999999999991E-002     5.7913081441719077E-005
  -5.1999999999999991E-002     6.0139238997294572E-005
  -5.1499999999999990E-002     6.2442428891163859E-005
  -5.0999999999999990E-002     6.4824950394166619E-005
  -5.0499999999999989E-002     6.7289166685604310E-005
  -4.9999999999999989E-002     6.9837484667815554E-005
  -4.9499999999999988E-002     7.2472361910923410E-005
  -4.8999999999999988E-002     7.5196326609111314E-005
  -4.8499999999999988E-002     7.8011957310731252E-005
  -4.7999999999999987E-002     8.0921890718703649E-005
  -4.7499999999999987E-002     8.3928819635213636E-005
  -4.6999999999999986E-002     8.7035511006791294E-005
  -4.6499999999999986E-002     9.0244765727821250E-005
  -4.5999999999999985E-002     9.3559458893961923E-005
  -4.5499999999999985E-002     9.6982528776203664E-005
  -4.4999999999999984E-002     1.0051695458937873E-004
  -4.4499999999999984E-002     1.0416578205639272E-004
  -4.3999999999999984E-002     1.0793212478320404E-004
  -4.3499999999999983E-002     1.1181915461381456E-004
  -4.2999999999999983E-002     1.1583010726988648E-004
  -4.2499999999999982E-002     1.1996828398452543E-004
  -4.1999999999999982E-002     1.2423703885362360E-004
  -4.1499999999999981E-002     1.2863983071079144E-004
  -4.0999999999999981E-002     1.3318012493447370E-004
  -4.0499999999999980E-002     1.3786148427685885E-004
  -3.9999999999999980E-002     1.4268753383565527E-004
  -3.9499999999999980E-002     1.4766192473621536E-004
  -3.8999999999999979E-002     1.5278839684217593E-004
  -3.8499999999999979E-002     1.5807077992216901E-004
  -3.7999999999999978E-002     1.6351293138155965E-004
  -3.7499999999999978E-002     1.6911876642450917E-004
  -3.6999999999999977E-002     1.7489228931034229E-004
  -3.6499999999999977E-002     1.8083757634130001E-004
  -3.5999999999999976E-002     1.8695871982249716E-004
  -3.5499999999999976E-002     1.9325991601281547E-004
  -3.4999999999999976E-002     1.9974540537262331E-004
  -3.4499999999999975E-002     2.0641948986820771E-004
  -3.3999999999999975E-002     2.1328650110237469E-004
  -3.3499999999999974E-002     2.2035087581401809E-004
  -3.2999999999999974E-002     2.2761707516032246E-004
  -3.2499999999999973E-002     2.3508960042030740E-004
  -3.1999999999999973E-002     2.4277306814744369E-004
  -3.1500000000000000E-002     2.5067210471501190E-004
  -3.1000000000000000E-002     2.5879140485536903E-004
  -3.0499999999999999E-002     2.6713574531405542E-004
  -2.9999999999999999E-002     2.7570991455540099E-004
  -2.9499999999999998E-002     2.8451884323340995E-004
  -2.8999999999999998E-002     2.9356741143074180E-004
  -2.8499999999999998E-002     3.0286058398552564E-004
  -2.7999999999999997E-002     3.1240336438295523E-004
  -2.7499999999999997E-002     3.2220081224598588E-004
  -2.6999999999999996E-002     3.3225801621056429E-004
  -2.6499999999999996E-002     3.4258002065100320E-004
  -2.5999999999999995E-002     3.5317198328357245E-004
  -2.5499999999999995E-002     3.6403909615118730E-004
  -2.4999999999999994E-002     3.7518655766044810E-004
  -2.4499999999999994E-002     3.8661961944533372E-004
  -2.3999999999999994E-002     3.9834355974954316E-004
  -2.3499999999999993E-002     4.1036372327916536E-004
  -2.2999999999999993E-002     4.2268546789239845E-004
  -2.2499999999999992E-002     4.3531416288683359E-004
  -2.1999999999999992E-002     4.4825517052293285E-004
  -2.1499999999999991E-002     4.6151393408057784E-004
  -2.0999999999999991E-002     4.7509582786957024E-004
  -2.0499999999999990E-002     4.8900629818071552E-004
  -1.9999999999999990E-002     5.0325079533455408E-004
  -1.9499999999999990E-002     5.1783460224533672E-004
  -1.8999999999999989E-002     5.3276312686301338E-004
  -1.8499999999999989E-002     5.4804178234165238E-004
  -1.7999999999999988E-002     5.6367587031403094E-004
  -1.7499999999999988E-002     5.7967077757214427E-004
  -1.6999999999999987E-002     5.9603187590240693E-004
  -1.6499999999999987E-002     6.1276438046782415E-004
  -1.5999999999999986E-002     6.2987363194299205E-004
  -1.5499999999999986E-002     6.4736485482918963E-004
  -1.4999999999999986E-002     6.6524334278862706E-004
  -1.4499999999999985E-002     6.8351434784775145E-004
  -1.3999999999999985E-002     7.0218294481149779E-004
  -1.3499999999999984E-002     7.2125427157167482E-004
  -1.2999999999999984E-002     7.4073335846150737E-004
  -1.2499999999999983E-002     7.6062513335286262E-004
  -1.1999999999999983E-002     7.8093440973990807E-004
  -1.1499999999999982E-002     8.0166584542931132E-004
  -1.0999999999999982E-002     8.2282412095201034E-004
  -1.0499999999999982E-002     8.4441375425048273E-004
  -9.9999999999999811E-003     8.6643923542983534E-004
  -9.4999999999999807E-003     8.8890492676550704E-004
  -8.9999999999999802E-003     9.1181521640324283E-004
  -8.4999999999999798E-003     9.3517422718462136E-004
  -7.9999999999999793E-003     9.5898612911706621E-004
  -7.4999999999999789E-003     9.8325490432848777E-004
  -6.9999999999999785E-003     1.0079843352804115E-003
  -6.4999999999999780E-003     1.0331782783404519E-003
  -5.9999999999999776E-003     1.0588401740795035E-003
  -5.4999999999999771E-003     1.0849734880596529E-003
  -4.9999999999999767E-003     1.1115812024322480E-003
  -4.4999999999999762E-003     1.1386663263365300E-003
  -3.9999999999999758E-003     1.1662316757441497E-003
  -3.4999999999999754E-003     1.1942797188596213E-003
  -2.9999999999999749E-003     1.2228127267356434E-003
  -2.4999999999999745E-003     1.2518330567698056E-003
  -1.9999999999999740E-003     1.2813426428852082E-003
  -1.4999999999999736E-003     1.3113434069704295E-003
  -9.9999999999997313E-004     1.3418368419560438E-003
  -4.9999999999997269E-004     1.3728245120392642E-003
   0.0000000000000000          1.4043074626480540E-003
   5.0000000000000044E-004     1.4362865198726230E-003
   1.0000000000000009E-003     1.4687624117871235E-003
   1.5000000000000013E-003     1.5017353104435560E-003
   2.0000000000000018E-003     1.5352053741921920E-003
   2.5000000000000022E-003     1.5691720955695071E-003
   3.0000000000000027E-003     1.6036349754938802E-003
   3.5000000000000031E-003     1.6385928140295906E-003
   4.0000000000000036E-003     1.6740444380220854E-003
   4.5000000000000040E-003     1.7099882038535698E-003
   5.0000000000000044E-003     1.7464222958387592E-003
   5.5000000000000049E-003     1.7833444934351596E-003
   6.0000000000000053E-003     1.8207525423863985E-003
   6.5000000000000058E-003     1.8586434534137546E-003
   7.0000000000000062E-003     1.8970141947292725E-003
   7.5000000000000067E-003     1.9358608952554429E-003
   8.0000000000000071E-003     1.9751797926932328E-003
   8.5000000000000075E-003     2.0149665704613353E-003
   9.0000000000000080E-003     2.0552163572192211E-003
   9.5000000000000084E-003     2.0959237959303520E-003
   1.0000000000000009E-002     2.1370833573679322E-003
   1.0500000000000009E-002     2.1786885753495074E-003
   1.1000000000000010E-002     2.2207330134765978E-003
   1.1500000000000010E-002     2.2632094970165355E-003
   1.2000000000000011E-002     2.3061107144366527E-003
   1.2500000000000011E-002     2.3494288480826737E-003
   1.3000000000000012E-002     2.3931556807403626E-003
   1.3500000000000012E-002     2.4372824857394619E-003
   1.4000000000000012E-002     2.4818002929027244E-003
   1.4500000000000013E-002     2.5266995086848402E-003
   1.5000000000000013E-002     2.5719700462302213E-003
   1.5500000000000014E-002     2.6176012995415029E-003
   1.6000000000000014E-002     2.6635822337585627E-003
   1.6500000000000015E-002     2.7099009853078751E-003
   1.7000000000000015E-002     2.7565449247780767E-003
   1.7500000000000016E-002     2.8035011995310708E-003
   1.8000000000000016E-002     2.8507565286473714E-003
   1.8500000000000016E-002     2.8982971550702433E-003
   1.9000000000000017E-002     2.9461086577325310E-003
   1.9500000000000017E-002     2.9941763280565145E-003
   2.0000000000000018E-002     3.0424848572383613E-003
   2.0500000000000018E-002     3.0910183763542699E-003
   2.1000000000000019E-002     3.1397605941595142E-003
   2.1500000000000019E-002     3.1886945114772179E-003
   2.2000000000000020E-002     3.2378029258566493E-003
   2.2500000000000020E-002     3.2870676262021564E-003
   2.3000000000000020E-002     3.3364701918112386E-003
   2.3500000000000021E-002     3.3859911133245751E-003
   2.4000000000000021E-002     3.4356105056280528E-003
   2.4500000000000022E-002     3.4853079245233277E-003
   2.5000000000000022E-002     3.5350623885433523E-003
   2.5500000000000023E-002     3.5848522246435116E-003
   2.6000000000000023E-002     3.6346556581606081E-003
   2.6500000000000024E-002     3.6844500671367455E-003
   2.7000000000000024E-002     3.7342126598677843E-003
   2.7500000000000024E-002     3.7839196845971266E-003
   2.8000000000000025E-002     3.8335469661748131E-003
   2.8500000000000025E-002     3.8830697942452098E-003
   2.9000000000000026E-002     3.9324632104386506E-003
   2.9500000000000026E-002     3.9817022243479744E-003
   3.0000000000000027E-002     4.0307602246103681E-003
   3.0500000000000027E-002     4.0796109800063200E-003
   3.1000000000000028E-002     4.1282263769722846E-003
   3.1500000000000028E-002     4.1765792792971988E-003
   3.2000000000000028E-002     4.2246411439366962E-003