 -0.23999999999999999          0.0000000000000000     
 -0.23949999999999999          0.0000000000000000     
 -0.23899999999999999          0.0000000000000000     
 -0.23849999999999999         -2.8353519045182498E-014
 -0.23799999999999999         -1.6514188380623434E-013
 -0.23749999999999999         -5.1130615700829871E-013
 -0.23699999999999999         -1.0700477519801888E-012
 -0.23649999999999999         -1.5544846757778756E-012
 -0.23599999999999999         -1.2001283982919629E-012
 -0.23549999999999999          1.2836677036229907E-012
 -0.23499999999999999          7.4724645961794956E-012
 -0.23449999999999999          1.8591008068511836E-011
 -0.23399999999999999          3.4495018475530292E-011
 -0.23349999999999999          5.2454209094838962E-011
 -0.23299999999999998          6.6107178109019889E-011
 -0.23249999999999998          6.5101631234045499E-011
 -0.23199999999999998          3.5966457826101487E-011
 -0.23149999999999998         -3.5369614307316907E-011
 -0.23099999999999998         -1.5931994796806886E-010
 -0.23049999999999998         -3.3704008118298419E-010
 -0.22999999999999998         -5.5446706087325910E-010
 -0.22949999999999998         -7.7752446725094648E-010
 -0.22899999999999998         -9.5037521983074084E-010
 -0.22849999999999998         -9.9858367632651213E-010
 -0.22799999999999998         -8.3855218118134549E-010
 -0.22749999999999998         -3.9355133203960750E-010
 -0.22699999999999998          3.8483903624662429E-010
 -0.22649999999999998          1.4928234120976638E-009
 -0.22599999999999998          2.8526416880401735E-009
 -0.22549999999999998          4.2987657811620542E-009
 -0.22499999999999998          5.5780479842520503E-009
 -0.22449999999999998          6.3687632460375861E-009
 -0.22399999999999998          6.3209183023467854E-009
 -0.22349999999999998          5.1164122183268449E-009
 -0.22299999999999998          2.5428483094337612E-009
 -0.22249999999999998         -1.4299185949919151E-009
 -0.22199999999999998         -6.5852265815111453E-009
 -0.22150000000000000         -1.2423513326161047E-008
 -0.22100000000000000         -1.8169998687444018E-008
 -0.22050000000000000         -2.2836486090130042E-008
 -0.22000000000000000         -2.5339903110196451E-008
 -0.21950000000000000         -2.4669167968124646E-008
 -0.21900000000000000         -2.0080685001649360E-008
 -0.21850000000000000         -1.1292489852741383E-008
 -0.21800000000000000          1.3595853402455227E-009
 -0.21750000000000000          1.6840937009789873E-008
 -0.21700000000000000          3.3443384037999103E-008
 -0.21650000000000000          4.8933313163593551E-008
 -0.21600000000000000          6.0819817387244057E-008
 -0.21550000000000000          6.6716656520882908E-008
 -0.21500000000000000          6.4749222062216507E-008
 -0.21450000000000000          5.3941371399640424E-008
 -0.21400000000000000          3.4508767203314440E-008
 -0.21350000000000000          7.9921874391938935E-009
 -0.21299999999999999         -2.2817108411251959E-008
 -0.21249999999999999         -5.4175820255352611E-008
 -0.21199999999999999         -8.1886935452811320E-008
 -0.21149999999999999         -1.0193385977873227E-007
 -0.21099999999999999         -1.1115182273289328E-007
 -0.21049999999999999         -1.0781890670387022E-007
 -0.20999999999999999         -9.2049323385114660E-008
 -0.20949999999999999         -6.5895050015284053E-008
 -0.20899999999999999         -3.3107477274334771E-008
 -0.20849999999999999          1.4316312345987390E-009
 -0.20799999999999999          3.2533719482360030E-008
 -0.20749999999999999          5.5650177584167084E-008
 -0.20699999999999999          6.7771769787997837E-008
 -0.20649999999999999          6.8102117020017676E-008
 -0.20599999999999999          5.8352633064603433E-008
 -0.20549999999999999          4.2563728134582884E-008
 -0.20499999999999999          2.6441693726881546E-008
 -0.20449999999999999          1.6293098067347686E-008
 -0.20399999999999999          1.7727219094295093E-008
 -0.20349999999999999          3.4357701349423573E-008
 -0.20299999999999999          6.6758118135703955E-008
 -0.20249999999999999          1.1190063891053863E-007
 -0.20199999999999999          1.6323359669349788E-007
 -0.20149999999999998          2.1144352979217013E-007
 -0.20099999999999998          2.4582036760338225E-007
 -0.20049999999999998          2.5601766558393412E-007
 -0.19999999999999998          2.3391124041284799E-007
 -0.19949999999999998          1.7521298051792926E-007
 -0.19899999999999998          8.0524286651508274E-008
 -0.19849999999999998         -4.4404264846005559E-008
 -0.19799999999999998         -1.8929772507989076E-007
 -0.19749999999999998         -3.4079189886582143E-007
 -0.19699999999999998         -4.8443859190837495E-007
 -0.19649999999999998         -6.0691384382530337E-007
 -0.19600000000000001         -6.9799569447675289E-007
 -0.19550000000000001         -7.5190011267744841E-007
 -0.19500000000000001         -7.6766715258256696E-007
 -0.19450000000000001         -7.4845639904602971E-007
 -0.19400000000000001         -6.9983775516522840E-007
 -0.19350000000000001         -6.2736531725028605E-007
 -0.19300000000000000         -5.3390194545882827E-007
 -0.19250000000000000         -4.1726539886315724E-007
 -0.19200000000000000         -2.6873337100886039E-007
 -0.19150000000000000         -7.2853396329626529E-008
 -0.19100000000000000          1.9123553366790020E-007
 -0.19050000000000000          5.4702891301232737E-007
 -0.19000000000000000          1.0167535332084358E-006
 -0.18950000000000000          1.6169492938069930E-006
 -0.18900000000000000          2.3542670945622456E-006
 -0.18850000000000000          3.2222319547104467E-006
 -0.18800000000000000          4.1996771785351730E-006
 -0.18750000000000000          5.2512219551602941E-006
 -0.18700000000000000          6.3299508965737811E-006
 -0.18650000000000000          7.3819975398276497E-006
 -0.18600000000000000          8.3524860125568485E-006
 -0.18550000000000000          9.1919813376834190E-006
 -0.18500000000000000          9.8625246338967266E-006
 -0.18450000000000000          1.0342336783289565E-005
 -0.18400000000000000          1.0628493559025907E-005
 -0.18350000000000000          1.0737217296913453E-005
 -0.18300000000000000          1.0701637539990653E-005
 -0.18250000000000000          1.0567525126482511E-005
 -0.18200000000000000          1.0387571437172972E-005
 -0.18149999999999999          1.0215073786743645E-005
 -0.18099999999999999          1.0098004239878201E-005
 -0.18049999999999999          1.0074300996161467E-005
 -0.17999999999999999          1.0168902573480776E-005
 -0.17949999999999999          1.0392901311538867E-005
 -0.17899999999999999          1.0744836492481035E-005
 -0.17849999999999999          1.1213484045296483E-005
 -0.17799999999999999          1.1782148632163501E-005
 -0.17749999999999999          1.2432932270790048E-005
 -0.17699999999999999          1.3150909119006345E-005
 -0.17649999999999999          1.3927572238978313E-005
 -0.17599999999999999          1.4762555832764528E-005
 -0.17549999999999999          1.5664293774146937E-005
 -0.17499999999999999          1.6648919865732773E-005
 -0.17449999999999999          1.7738300685685747E-005
 -0.17399999999999999          1.8957022944149047E-005
 -0.17349999999999999          2.0329436307419005E-005
 -0.17299999999999999          2.1876493908079900E-005
 -0.17249999999999999          2.3613545586276690E-005
 -0.17199999999999999          2.5548359922642519E-005
 -0.17149999999999999          2.7680547363845712E-005
 -0.17099999999999999          3.0001677374129342E-005
 -0.17049999999999998          3.2496454093200503E-005
 -0.16999999999999998          3.5144916980146059E-005
 -0.16949999999999998          3.7924093138448151E-005
 -0.16899999999999998          4.0811808929114346E-005
 -0.16849999999999998          4.3789405755724630E-005
 -0.16799999999999998          4.6844292059518457E-005
 -0.16749999999999998          4.9973102920860694E-005
 -0.16699999999999998          5.3182840756164389E-005
 -0.16649999999999998          5.6492283175834100E-005
 -0.16599999999999998          5.9931490111150821E-005
 -0.16549999999999998          6.3540443136854215E-005
 -0.16499999999999998          6.7366745501939713E-005
 -0.16449999999999998          7.1461413896111258E-005
 -0.16399999999999998          7.5875853856301379E-005
 -0.16349999999999998          8.0658082433849581E-005
 -0.16299999999999998          8.5848598758817276E-005
 -0.16249999999999998          9.1479193412176326E-005
 -0.16199999999999998          9.7571243128448382E-005
 -0.16149999999999998          1.0413741287825789E-004
 -0.16099999999999998          1.1118308694328782E-004
 -0.16049999999999998          1.1871033636142597E-004
 -0.15999999999999998          1.2672058650354105E-004
 -0.15949999999999998          1.3521967309104694E-004
 -0.15899999999999997          1.4421958827002222E-004
 -0.15849999999999997          1.5373947388574340E-004
 -0.15799999999999997          1.6380606454008750E-004
 -0.15749999999999997          1.7445233390043201E-004
 -0.15699999999999997          1.8571440351161821E-004
 -0.15649999999999997          1.9762710456893524E-004
 -0.15599999999999997          2.1022334207814993E-004
 -0.15549999999999997          2.2352913516607452E-004
 -0.15499999999999997          2.3756720309978482E-004
 -0.15449999999999997          2.5235601879063606E-004
 -0.15399999999999997          2.6791351015374178E-004
 -0.15349999999999997          2.8426410175787540E-004
 -0.15299999999999997          3.0144025330794627E-004
 -0.15249999999999997          3.1948915988736057E-004
 -0.15200000000000000          3.3848079976425032E-004
 -0.15150000000000000          3.5849851227978278E-004
 -0.15100000000000000          3.7964664226335912E-004
 -0.15049999999999999          4.0204492058095852E-004
 -0.14999999999999999          4.2582209126179420E-004
 -0.14949999999999999          4.5111192791996062E-004
 -0.14899999999999999          4.7804165588665002E-004
 -0.14849999999999999          5.0673176502644612E-004
 -0.14799999999999999          5.3728855797534867E-004
 -0.14749999999999999          5.6980760747788947E-004
 -0.14699999999999999          6.0436892857009829E-004
 -0.14649999999999999          6.4104500839949966E-004
 -0.14599999999999999          6.7990209720547698E-004
 -0.14549999999999999          7.2101008451011268E-004
 -0.14499999999999999          7.6445083021611175E-004
 -0.14449999999999999          8.1031404428377805E-004
 -0.14399999999999999          8.5870761438112616E-004
 -0.14349999999999999          9.0976029822754110E-004
 -0.14299999999999999          9.6361888571490448E-004
 -0.14249999999999999          1.0204410883786425E-003
 -0.14199999999999999          1.0804146246626428E-003
 -0.14149999999999999          1.1437295795589573E-003
 -0.14099999999999999          1.2105858962416418E-003
 -0.14049999999999999          1.2812011180129391E-003
 -0.13999999999999999          1.3557824634391363E-003
 -0.13949999999999999          1.4345498441448450E-003
 -0.13899999999999998          1.5177306690197536E-003
 -0.13849999999999998          1.6055340021248563E-003
 -0.13799999999999998          1.6982147138660318E-003
 -0.13749999999999998          1.7959905448728746E-003
 -0.13699999999999998          1.8990989705426412E-003
 -0.13649999999999998          2.0078087415104466E-003
 -0.13599999999999998          2.1223768460389243E-003
 -0.13550000000000001          2.2430729770114744E-003
 -0.13500000000000001          2.3701847316966651E-003
 -0.13450000000000001          2.5040536422053709E-003
 -0.13400000000000001          2.6450395682582825E-003
 -0.13350000000000001          2.7935311910956416E-003
 -0.13300000000000001          2.9499454011863869E-003
 -0.13250000000000001          3.1147332112633451E-003
 -0.13200000000000001          3.2883597235247950E-003
 -0.13150000000000001          3.4713442962588390E-003
 -0.13100000000000001          3.6641860136062210E-003
 -0.13050000000000000          3.8673893246520125E-003
 -0.13000000000000000          4.0814752042231985E-003
 -0.12950000000000000          4.3069533844154739E-003
 -0.12900000000000000          4.5443140383457006E-003
 -0.12850000000000000          4.7940780396841598E-003
 -0.12800000000000000          5.0567775753760785E-003
 -0.12750000000000000          5.3329604927620650E-003
 -0.12700000000000000          5.6231901445395038E-003
 -0.12650000000000000          5.9281618118801269E-003
 -0.12600000000000000          6.2485183029193673E-003
 -0.12550000000000000          6.5851064262301773E-003
 -0.12499999999999999          6.9387001281639039E-003
 -0.12449999999999999          7.3102579798794594E-003
 -0.12399999999999999          7.7007101127607273E-003
 -0.12349999999999998          8.1110366453163128E-003
 -0.12299999999999998          8.5423233379888844E-003
 -0.12249999999999998          8.9955389627297665E-003
 -0.12199999999999998          9.4717486058172682E-003
 -0.12149999999999998          9.9720249369646824E-003
 -0.12099999999999998          1.0497457945375294E-002
 -0.12049999999999998          1.1049120721122428E-002
 -0.12000000000000000          1.1628125542165895E-002
 -0.11950000000000000          1.2235669799809903E-002
 -0.11899999999999999          1.2872963722014404E-002
 -0.11849999999999999          1.3541338501272874E-002
 -0.11799999999999999          1.4242100936110122E-002
 -0.11749999999999999          1.4976714785760174E-002
 -0.11699999999999999          1.5746875434612569E-002
 -0.11649999999999999          1.6554104609793684E-002
 -0.11599999999999999          1.7400237331843753E-002
 -0.11549999999999999          1.8287057251682882E-002
 -0.11499999999999999          1.9216483004278990E-002
 -0.11449999999999999          2.0190364194632320E-002
 -0.11399999999999999          2.1210782386690528E-002
 -0.11349999999999999          2.2279701030359041E-002
 -0.11299999999999999          2.3399455623794328E-002
 -0.11249999999999999          2.4572136079952310E-002
 -0.11199999999999999          2.5800057691580201E-002
 -0.11149999999999999          2.7085690880583949E-002
 -0.11099999999999999          2.8431273348338511E-002
 -0.11049999999999999          2.9839529510609100E-002
 -0.10999999999999999          3.1313035669786035E-002
 -0.10949999999999999          3.2854597137950012E-002
 -0.10899999999999999          3.4466941221658540E-002
 -0.10849999999999999          3.6153117980467046E-002
 -0.10799999999999998          3.7916218325215356E-002
 -0.10749999999999998          3.9759371705446800E-002
 -0.10699999999999998          4.1686269420836461E-002
 -0.10649999999999998          4.3700156976679116E-002
 -0.10599999999999998          4.5804504050639558E-002
 -0.10549999999999998          4.8003359909283491E-002
 -0.10499999999999998          5.0300778023990335E-002
 -0.10449999999999998          5.2700672818461913E-002
 -0.10399999999999998          5.5206974680489337E-002
 -0.10349999999999998          5.7824677964471285E-002
 -0.10299999999999998          6.0557861905966195E-002
 -0.10249999999999998          6.3411173693252942E-002
 -0.10199999999999998          6.6389316414622437E-002
 -0.10149999999999998          6.9497705507697072E-002
 -0.10099999999999998          7.2740573347494758E-002
 -0.10049999999999998          7.6124564864792355E-002
  -9.9999999999999978E-002     7.9654254559646739E-002
  -9.9499999999999977E-002     8.3335525936397037E-002
  -9.8999999999999977E-002     8.7173785429408845E-002
  -9.8499999999999976E-002     9.1176636023132113E-002
  -9.7999999999999976E-002     9.5349169869509892E-002
  -9.7499999999999976E-002     9.9698255828375770E-002
  -9.6999999999999975E-002    0.10423072423378191     
  -9.6499999999999975E-002    0.10895305388459389     
  -9.5999999999999974E-002    0.11387229070599558     
  -9.5500000000000002E-002    0.11899587813340573     
  -9.5000000000000001E-002    0.12433249053798501     
  -9.4500000000000001E-002    0.12988863622028723     
  -9.4000000000000000E-002    0.13567499641592146     
  -9.3500000000000000E-002    0.14169785867205237     
  -9.2999999999999999E-002    0.14796597525083580     
  -9.2499999999999999E-002    0.15448842897921505     
  -9.1999999999999998E-002    0.16127579154863597     
  -9.1499999999999998E-002    0.16833684981014449     
  -9.0999999999999998E-002    0.17568062322851433     
  -9.0499999999999997E-002    0.18331843897177785     
  -8.9999999999999997E-002    0.19125984588949524     
  -8.9499999999999996E-002    0.19951621352878435     
  -8.8999999999999996E-002    0.20809751650096309     
  -8.8499999999999995E-002    0.21701616928217229     
  -8.7999999999999995E-002    0.22628419714431736     
  -8.7499999999999994E-002    0.23591247286449124     
  -8.6999999999999994E-002    0.24591453736117974     
  -8.6499999999999994E-002    0.25630261290235012     
  -8.5999999999999993E-002    0.26708901513405003     
  -8.5499999999999993E-002    0.27828898310965300     
  -8.4999999999999992E-002    0.28991821313377897     
  -8.4499999999999992E-002    0.30198821559355227     
  -8.3999999999999991E-002    0.31451317326965866     
  -8.3499999999999991E-002    0.32750753876000410     
  -8.2999999999999990E-002    0.34098994318883091     
  -8.2499999999999990E-002    0.35497138570141273     
  -8.1999999999999990E-002    0.36947012335192220     
  -8.1499999999999989E-002    0.38450509699273810     
  -8.0999999999999989E-002    0.40008916823943580     
  -8.0499999999999988E-002    0.41624458555332183     
  -7.9999999999999988E-002    0.43298899183876793     
  -7.9499999999999987E-002    0.45033803711016573     
  -7.8999999999999987E-002    0.46830916672385259     
  -7.8499999999999986E-002    0.48692442196225172     
  -7.7999999999999986E-002    0.50620281852748272     
  -7.7499999999999986E-002    0.52616888485927205     
  -7.6999999999999985E-002    0.54683866795558989     
  -7.6499999999999985E-002    0.56823382310752735     
  -7.5999999999999984E-002    0.59038050849969015     
  -7.5499999999999984E-002    0.61329659839603590     
  -7.4999999999999983E-002    0.63700412148112528     
  -7.4499999999999983E-002    0.66152671539391195     
  -7.3999999999999982E-002    0.68688651589636351     
  -7.3499999999999982E-002    0.71310718323672884     
  -7.2999999999999982E-002    0.74021734070396250     
  -7.2499999999999981E-002    0.76824054951667864     
  -7.1999999999999981E-002    0.79719832857136930     
  -7.1499999999999980E-002    0.82712192598047829     
  -7.0999999999999980E-002    0.85803826186201215     
  -7.0499999999999979E-002    0.88997332511155203     
  -6.9999999999999979E-002    0.92295287091116784     
  -6.9499999999999978E-002    0.95701207891587803     
  -6.8999999999999978E-002    0.99217055983008917     
  -6.8499999999999978E-002     1.0284701591190870     
  -6.7999999999999977E-002     1.0659297561335859     
  -6.7499999999999977E-002     1.1045828436358598     
  -6.6999999999999976E-002     1.1444587982554906     
  -6.6499999999999976E-002     1.1855765634778299     
  -6.5999999999999975E-002     1.2279872995002279     
  -6.5499999999999975E-002     1.2717094583507649     
  -6.4999999999999974E-002     1.3167891508384688     
  -6.4499999999999974E-002     1.3632494494632321     
  -6.4000000000000001E-002     1.4111261442638270     
  -6.3500000000000001E-002     1.4604602895481125     
  -6.3000000000000000E-002     1.5112633233514459     
  -6.2500000000000000E-002     1.5636140129752749     
  -6.2000000000000000E-002     1.6175098955579716     
  -6.1499999999999999E-002     1.6729983347491062     
  -6.0999999999999999E-002     1.7301032249207919     
  -6.0499999999999998E-002     1.7888797864037105     
  -5.9999999999999998E-002     1.8493512750611334     
  -5.9499999999999997E-002     1.9115744393972478     
  -5.8999999999999997E-002     1.9755685069081399     
  -5.8499999999999996E-002     2.0413660976018457     
  -5.7999999999999996E-002     2.1090218210224987     
  -5.7499999999999996E-002     2.1785654949564255     
  -5.6999999999999995E-002     2.2500376728894835     
  -5.6499999999999995E-002     2.3234778121095867     
  -5.5999999999999994E-002     2.3989343541292749     
  -5.5499999999999994E-002     2.4764651427388813     
  -5.4999999999999993E-002     2.5560620288364744     
  -5.4499999999999993E-002     2.6378016151594941     
  -5.3999999999999992E-002     2.7216955457276875     
  -5.3499999999999992E-002     2.8078045003158962     
  -5.2999999999999992E-002     2.8961245535650022     
  -5.2499999999999991E-002     2.9867418234269687     
  -5.1999999999999991E-002     3.0796836777970502     
  -5.1499999999999990E-002     3.1749915915060534     
  -5.0999999999999990E-002     3.2727073025624915     
  -5.0499999999999989E-002     3.3728572722296137     
  -4.9999999999999989E-002     3.4755246718861512     
  -4.9499999999999988E-002     3.5807125095918342     
  -4.8999999999999988E-002     3.6884400265033390     
  -4.8499999999999988E-002     3.7988145970052516     
  -4.7999999999999987E-002     3.9117927248791799     
  -4.7499999999999987E-002     4.0274743273402116     
  -4.6999999999999986E-002     4.1458506142247717     
  -4.6499999999999986E-002     4.2670026828406815     
  -4.5999999999999985E-002     4.3909538132480277     
  -4.5499999999999985E-002     4.5177456112949121     
  -4.4999999999999984E-002     4.6473947449571202     
  -4.4499999999999984E-002     4.7799815454444587     
  -4.3999999999999984E-002     4.9154921549675095     
  -4.3499999999999983E-002     5.0539444524983574     
  -4.2999999999999983E-002     5.1953824989575246     
  -4.2499999999999982E-002     5.3398490103889822     
  -4.1999999999999982E-002     5.4873494200485009     
  -4.1499999999999981E-002     5.6379541213971613     
  -4.0999999999999981E-002     5.7915962649178052     
  -4.0499999999999980E-002     5.9484192187065492     
  -3.9999999999999980E-002     6.1083957841914334     
  -3.9499999999999980E-002     6.2716367919915967     
  -3.8999999999999979E-002     6.4380715440860268     
  -3.8499999999999979E-002     6.6077863153959289     
  -3.7999999999999978E-002     6.7808131118322752     
  -3.7499999999999978E-002     6.9571023908760870     
  -3.6999999999999977E-002     7.1366348732326914     
  -3.6499999999999977E-002     7.3194614170008210     
  -3.5999999999999976E-002     7.5056036651079001     
  -3.5499999999999976E-002     7.6951283630863649     
  -3.4999999999999976E-002     7.8878694851054547     
  -3.4499999999999975E-002     8.0839264656012464     
  -3.3999999999999975E-002     8.2833955189773327     
  -3.3499999999999974E-002     8.4861774726077801     
  -3.2999999999999974E-002     8.6924029761156927     
  -3.2499999999999973E-002     8.9020497039340896     
  -3.1999999999999973E-002     9.1150155916362934     
  -3.1500000000000000E-002     9.3314675526412572     
  -3.1000000000000000E-002     9.5510730077423371     
  -3.0499999999999999E-002     9.7739928688404447     
  -2.9999999999999999E-002     10.000209931754547     
  -2.9499999999999998E-002     10.229691860273583     
  -2.8999999999999998E-002     10.462226004503968     
  -2.8499999999999998E-002     10.698080728732474     
  -2.7999999999999997E-002     10.937122468062611     
  -2.7499999999999997E-002     11.179341848234015     
  -2.6999999999999996E-002     11.424721076632657     
  -2.6499999999999996E-002     11.673255299702744     
  -2.5999999999999995E-002     11.924829197679140     
  -2.5499999999999995E-002     12.179427052714999     
  -2.4999999999999994E-002     12.437078094533513     
  -2.4499999999999994E-002     12.697636920494389     
  -2.3999999999999994E-002     12.960882182291472     
  -2.3499999999999993E-002     13.226936454216482     
  -2.2999999999999993E-002     13.495585152047195     
  -2.2499999999999992E-002     13.766819916637997     
  -2.1999999999999992E-002     14.040588051484161     
  -2.1499999999999991E-002     14.316609335005085     
  -2.0999999999999991E-002     14.595167115873426     
  -2.0499999999999990E-002     14.876097142450355     
  -1.9999999999999990E-002     15.159193255132848     
  -1.9499999999999990E-002     15.444511358956287     
  -1.8999999999999989E-002     15.731806926532698     
  -1.8499999999999989E-002     16.021032801730385     
  -1.7999999999999988E-002     16.311933655038722     
  -1.7499999999999988E-002     16.604695439953876     
  -1.6999999999999987E-002     16.898938573267742     
  -1.6499999999999987E-002     17.194689666472620     
  -1.5999999999999986E-002     17.491390347443414     
  -1.5499999999999986E-002     17.789128463754189     
  -1.4999999999999986E-002     18.087716786574930     
  -1.4499999999999985E-002     18.387350155992593     
  -1.3999999999999985E-002     18.687534517804714     
  -1.3499999999999984E-002     18.988190269927593     
  -1.2999999999999984E-002     19.289206770915271     
  -1.2499999999999983E-002     19.590670297012043     
  -1.1999999999999983E-002     19.891703674806191     
  -1.1499999999999982E-002     20.193114969993932     
  -1.0999999999999982E-002     20.493876499255169     
  -1.0499999999999982E-002     20.793832260801214     
  -9.9999999999999811E-003     21.092570651826946     
  -9.4999999999999807E-003     21.390315908626540     
  -8.9999999999999802E-003     21.686519346395094     
  -8.4999999999999798E-003     21.981482105633113     
  -7.9999999999999793E-003     22.274883285776777     
  -7.4999999999999789E-003     22.566645663063952     
  -6.9999999999999785E-003     22.856012519540638     
  -6.4999999999999780E-003     23.143446028686295     
  -5.9999999999999776E-003     23.428041351322221     
  -5.4999999999999771E-003     23.709553766662157     
  -4.9999999999999767E-003     23.988100448082264     
  -4.4999999999999762E-003     24.263344266165209     
  -3.9999999999999758E-003     24.534727848467547     
  -3.4999999999999754E-003     24.801791942660614     
  -2.9999999999999749E-003     25.065061146855946     
  -2.4999999999999745E-003     25.322982791585304     
  -1.9999999999999740E-003     25.576753714454121     
  -1.4999999999999736E-003     25.824957567459723     
  -9.9999999999997313E-004     26.067378771424217     
  -4.9999999999997269E-004     26.304321547315141     
   0.0000000000000000          26.535350608331026     
   5.0000000000000044E-004     26.759763184544958     
   1.0000000000000009E-003     26.977424718518755     
   1.5000000000000013E-003     27.187385700805944     
   2.0000000000000018E-003     27.391244293724743     
   2.5000000000000022E-003     27.585865759235663     
   3.0000000000000027E-003     27.772416518000689     
   3.5000000000000031E-003     27.950573659131258     
   4.0000000000000036E-003     28.120412901644176     
   4.5000000000000040E-003     28.281015880058270     
   5.0000000000000044E-003     28.432389573238826     
   5.5000000000000049E-003     28.574142973789094     
   6.0000000000000053E-003     28.705732987931174     
   6.5000000000000058E-003     28.827168178182905     
   7.0000000000000062E-003     28.937339346317714     
   7.5000000000000067E-003     29.036512379810048     
   8.0000000000000071E-003     29.124031128443324     
   8.5000000000000075E-003     29.199292740979125     
   9.0000000000000080E-003     29.262158268490428     
   9.5000000000000084E-003     29.311113946040408     
   1.0000000000000009E-002     29.346382911916329     
   1.0500000000000009E-002     29.368547912188905     
   1.1000000000000010E-002     29.377277515877985     
   1.1500000000000010E-002     29.371593995525586     
   1.2000000000000011E-002     29.351792161748207     
   1.2500000000000011E-002     29.316800458078376     
   1.3000000000000012E-002     29.266663758984912     
   1.3500000000000012E-002     29.200491931340881     
   1.4000000000000012E-002     29.117649595404590     
   1.4500000000000013E-002     29.018795996865457     
   1.5000000000000013E-002     28.904526120547498     
   1.5500000000000014E-002     28.771135536766831     
   1.6000000000000014E-002     28.620160680753894     
   1.6500000000000015E-002     28.452423101615764     
   1.7000000000000015E-002     28.265701073430364     
   1.7500000000000016E-002     28.059668754192742     
   1.8000000000000016E-002     27.834730767631989     
   1.8500000000000016E-002     27.590573056917304     
   1.9000000000000017E-002     27.326891572072078     
   1.9500000000000017E-002     27.042762693276039     
   2.0000000000000018E-002     26.737803017949417     
   2.0500000000000018E-002     26.412382548536758     
   2.1000000000000019E-002     26.068768754949573     
   2.1500000000000019E-002     25.702116618529249     
   2.2000000000000020E-002     25.315454357882611     
   2.2500000000000020E-002     24.905335386773604     
   2.3000000000000020E-002     24.473233189755330     
   2.3500000000000021E-002     24.018541994053383     
   2.4000000000000021E-002     23.539632875468040     
   2.4500000000000022E-002     23.039819111887166     
   2.5000000000000022E-002     22.517669564356702     
   2.5500000000000023E-002     21.971861733307563     
   2.6000000000000023E-002     21.404428430600948     
   2.6500000000000024E-002     20.812785375770567     
   2.7000000000000024E-002     20.197197844545361     
   2.7500000000000024E-002     19.559582475129901     
   2.8000000000000025E-002     18.896719965569993     
   2.8500000000000025E-002     18.208722499393698     
   2.9000000000000026E-002     17.492407123993516     
   2.9500000000000026E-002     16.755662419144908     
   3.0000000000000027E-002     15.991808952628705     
   3.0500000000000027E-002     15.203998224717655     
   3.1000000000000028E-002     14.393410295164273     
   3.1500000000000028E-002     13.556684171261647     
   3.2000000000000028E-002     12.694976133079596     