 -0.23999999999999999         -1.1182640029013495E-010
 -0.23949999999999999         -2.9642865262267680E-010
 -0.23899999999999999         -3.6830184807866802E-010
 -0.23849999999999999         -2.8174750995135222E-010
 -0.23799999999999999         -4.2928160390872513E-011
 -0.23749999999999999          2.8897617300223577E-010
 -0.23699999999999999          6.1665010122114726E-010
 -0.23649999999999999          8.3219983330320417E-010
 -0.23599999999999999          8.5044910252984796E-010
 -0.23549999999999999          6.3911479583105134E-010
 -0.23499999999999999          2.3725402593088169E-010
 -0.23449999999999999         -2.4418238984562274E-010
 -0.23399999999999999         -6.4173157711187400E-010
 -0.23349999999999999         -7.7589793461410099E-010
 -0.23299999999999998         -4.9739572915373588E-010
 -0.23249999999999998          2.6720766666113396E-010
 -0.23199999999999998          1.4815895606768816E-009
 -0.23149999999999998          2.9868800702868439E-009
 -0.23099999999999998          4.5153175549274269E-009
 -0.23049999999999998          5.7301759923045615E-009
 -0.22999999999999998          6.2859672013179604E-009
 -0.22949999999999998          5.8980789203031957E-009
 -0.22899999999999998          4.4082002490807234E-009
 -0.22849999999999998          1.8318593295855524E-009
 -0.22799999999999998         -1.6227657509252020E-009
 -0.22749999999999998         -5.5704035950882752E-009
 -0.22699999999999998         -9.4976556525388095E-009
 -0.22649999999999998         -1.2837799694316015E-008
 -0.22599999999999998         -1.5058549925324095E-008
 -0.22549999999999998         -1.5746985914090432E-008
 -0.22499999999999998         -1.4676022759602722E-008
 -0.22449999999999998         -1.1840013067453561E-008
 -0.22399999999999998         -7.4527088891835353E-009
 -0.22349999999999998         -1.9077862133184989E-009
 -0.22299999999999998          4.2909117764040173E-009
 -0.22249999999999998          1.0616730243858418E-008
 -0.22199999999999998          1.6609411382413279E-008
 -0.22150000000000000          2.1950380656659146E-008
 -0.22100000000000000          2.6511267033004878E-008
 -0.22050000000000000          3.0368078812796341E-008
 -0.22000000000000000          3.3779991385003185E-008
 -0.21950000000000000          3.7138163896264468E-008
 -0.21900000000000000          4.0895109182290882E-008
 -0.21850000000000000          4.5488088435555861E-008
 -0.21800000000000000          5.1270197434565425E-008
 -0.21750000000000000          5.8460433549327407E-008
 -0.21700000000000000          6.7119650181588057E-008
 -0.21650000000000000          7.7154072012586010E-008
 -0.21600000000000000          8.8342763594993079E-008
 -0.21550000000000000          1.0038152408419419E-007
 -0.21500000000000000          1.1293355233490677E-007
 -0.21450000000000000          1.2567735533292764E-007
 -0.21400000000000000          1.3834413862183911E-007
 -0.21350000000000000          1.5074058080228242E-007
 -0.21299999999999999          1.6275636862386056E-007
 -0.21249999999999999          1.7435958290854239E-007
 -0.21199999999999999          1.8558508092196598E-007
 -0.21149999999999999          1.9652150112334659E-007
 -0.21099999999999999          2.0730192688002452E-007
 -0.21049999999999999          2.1810063446130378E-007
 -0.20999999999999999          2.2913581010750160E-007
 -0.20949999999999999          2.4067539993692823E-007
 -0.20899999999999999          2.5304148681883489E-007
 -0.20849999999999999          2.6660809205415668E-007
 -0.20799999999999999          2.8178851721949276E-007
 -0.20749999999999999          2.9901073622716884E-007
 -0.20699999999999999          3.1868215794515037E-007
 -0.20649999999999999          3.4114845979722183E-007
 -0.20599999999999999          3.6665323385622378E-007
 -0.20549999999999999          3.9530596360621214E-007
 -0.20499999999999999          4.2706528272774832E-007
 -0.20449999999999999          4.6174265804381935E-007
 -0.20399999999999999          4.9902789254436157E-007
 -0.20349999999999999          5.3853362844383989E-007
 -0.20299999999999999          5.7985322214364078E-007
 -0.20249999999999999          6.2262373242418900E-007
 -0.20199999999999999          6.6658444218883900E-007
 -0.20149999999999998          7.1162220865091536E-007
 -0.20099999999999998          7.5779791460330411E-007
 -0.20049999999999998          8.0535099535478182E-007
 -0.19999999999999998          8.5468294867982401E-007
 -0.19949999999999998          9.0632392997735425E-007
 -0.19899999999999998          9.6088901415759677E-007
 -0.19849999999999998          1.0190320508094911E-006
 -0.19799999999999998          1.0814038517668922E-006
 -0.19749999999999998          1.1486203632903133E-006
 -0.19699999999999998          1.2212430813910649E-006
 -0.19649999999999998          1.2997711212376859E-006
 -0.19600000000000001          1.3846435100787562E-006
 -0.19550000000000001          1.4762475624750283E-006
 -0.19500000000000001          1.5749289083470520E-006
 -0.19450000000000001          1.6810006584846004E-006
 -0.19400000000000001          1.7947485882373077E-006
 -0.19350000000000001          1.9164342738889718E-006
 -0.19300000000000000          2.0462970997212045E-006
 -0.19250000000000000          2.1845580809727400E-006
 -0.19200000000000000          2.3314286618545664E-006
 -0.19150000000000000          2.4871260126652993E-006
 -0.19100000000000000          2.6518959869560982E-006
 -0.19050000000000000          2.8260415024003329E-006
 -0.19000000000000000          3.0099529342936796E-006
 -0.18950000000000000          3.2041366251633322E-006
 -0.18900000000000000          3.4092360884524646E-006
 -0.18850000000000000          3.6260413189815187E-006
 -0.18800000000000000          3.8554863410584852E-006
 -0.18750000000000000          4.0986306929332134E-006
 -0.18700000000000000          4.3566319875453580E-006
 -0.18650000000000000          4.6307144087549674E-006
 -0.18600000000000000          4.9221317150642447E-006
 -0.18550000000000000          5.2321425264415563E-006
 -0.18500000000000000          5.5619902265954516E-006
 -0.18450000000000000          5.9128967325693952E-006
 -0.18400000000000000          6.2860721034417632E-006
 -0.18350000000000000          6.6827294933146741E-006
 -0.18300000000000000          7.1041099432152053E-006
 -0.18250000000000000          7.5515106755448195E-006
 -0.18200000000000000          8.0263051451293496E-006
 -0.18149999999999999          8.5299589058492242E-006
 -0.18099999999999999          9.0640371152527098E-006
 -0.18049999999999999          9.6302049617844925E-006
 -0.17999999999999999          1.0230221413564246E-005
 -0.17949999999999999          1.0865929913577939E-005
 -0.17899999999999999          1.1539259821163613E-005
 -0.17849999999999999          1.2252226299696996E-005
 -0.17799999999999999          1.3006942186842086E-005
 -0.17749999999999999          1.3805643665777820E-005
 -0.17699999999999999          1.4650717146358401E-005
 -0.17649999999999999          1.5544733836853442E-005
 -0.17599999999999999          1.6490472177321331E-005
 -0.17549999999999999          1.7490937239280302E-005
 -0.17499999999999999          1.8549372820196899E-005
 -0.17449999999999999          1.9669257778680215E-005
 -0.17399999999999999          2.0854294399470961E-005
 -0.17349999999999999          2.2108375098709511E-005
 -0.17299999999999999          2.3435557005389317E-005
 -0.17249999999999999          2.4840038700429152E-005
 -0.17199999999999999          2.6326143605601543E-005
 -0.17149999999999999          2.7898308711729407E-005
 -0.17099999999999999          2.9561104487762061E-005
 -0.17049999999999998          3.1319260473366308E-005
 -0.16999999999999998          3.3177707813171367E-005
 -0.16949999999999998          3.5141621360883679E-005
 -0.16899999999999998          3.7216472652260325E-005
 -0.16849999999999998          3.9408073168195826E-005
 -0.16799999999999998          4.1722611167460964E-005
 -0.16749999999999998          4.4166677105922909E-005
 -0.16699999999999998          4.6747268150417742E-005
 -0.16649999999999998          4.9471779432917637E-005
 -0.16599999999999998          5.2347998307155386E-005
 -0.16549999999999998          5.5384091063233272E-005
 -0.16499999999999998          5.8588585246429649E-005
 -0.16449999999999998          6.1970364972695029E-005
 -0.16399999999999998          6.5538690969208887E-005
 -0.16349999999999998          6.9303226375565019E-005
 -0.16299999999999998          7.3274065835960751E-005
 -0.16249999999999998          7.7461790803706856E-005
 -0.16199999999999998          8.1877521761239170E-005
 -0.16149999999999998          8.6532957706564827E-005
 -0.16099999999999998          9.1440436931982001E-005
 -0.16049999999999998          9.6612962899656537E-005
 -0.15999999999999998          1.0206425781355123E-004
 -0.15949999999999998          1.0780873091399936E-004
 -0.15899999999999997          1.1386151858662019E-004
 -0.15849999999999997          1.2023852314723107E-004
 -0.15799999999999997          1.2695635813220272E-004
 -0.15749999999999997          1.3403234787283784E-004
 -0.15699999999999997          1.4148455871699201E-004
 -0.15649999999999997          1.4933182855967275E-004
 -0.15599999999999997          1.5759377459872596E-004
 -0.15549999999999997          1.6629080553816138E-004
 -0.15499999999999997          1.7544426274711098E-004
 -0.15449999999999997          1.8507648499314314E-004
 -0.15399999999999997          1.9521081672450760E-004
 -0.15349999999999997          2.0587171584999977E-004
 -0.15299999999999997          2.1708478188536476E-004
 -0.15249999999999997          2.2887687135466028E-004
 -0.15200000000000000          2.4127611395042430E-004
 -0.15150000000000000          2.5431201877910438E-004
 -0.15100000000000000          2.6801545379391155E-004
 -0.15049999999999999          2.8241874043650962E-004
 -0.14999999999999999          2.9755562948427701E-004
 -0.14949999999999999          3.1346129269794890E-004
 -0.14899999999999999          3.3017251066823588E-004
 -0.14849999999999999          3.4772770010586980E-004
 -0.14799999999999999          3.6616685232722000E-004
 -0.14749999999999999          3.8553168922524919E-004
 -0.14699999999999999          4.0586581684690234E-004
 -0.14649999999999999          4.2721467179496501E-004
 -0.14599999999999999          4.4962551858287775E-004
 -0.14549999999999999          4.7314784742924401E-004
 -0.14499999999999999          4.9783332949534815E-004
 -0.14449999999999999          5.2373582353335403E-004
 -0.14399999999999999          5.5091140830426742E-004
 -0.14349999999999999          5.7941849630777065E-004
 -0.14299999999999999          6.0931807495561590E-004
 -0.14249999999999999          6.4067358860656716E-004
 -0.14199999999999999          6.7355117482759434E-004
 -0.14149999999999999          7.0801964977105451E-004
 -0.14099999999999999          7.4415051768211881E-004
 -0.14049999999999999          7.8201834258732244E-004
 -0.13999999999999999          8.2170056256168286E-004
 -0.13949999999999999          8.6327782537735974E-004
 -0.13899999999999998          9.0683411233657193E-004
 -0.13849999999999998          9.5245667282237568E-004
 -0.13799999999999998          1.0002363115788823E-003
 -0.13749999999999998          1.0502675766179284E-003
 -0.13699999999999998          1.1026490440425732E-003
 -0.13649999999999998          1.1574832686086891E-003
 -0.13599999999999998          1.2148766811034433E-003
 -0.13550000000000001          1.2749398833314962E-003
 -0.13500000000000001          1.3377880980210690E-003
 -0.13450000000000001          1.4035412118193020E-003
 -0.13400000000000001          1.4723236078154020E-003
 -0.13350000000000001          1.5442641611249823E-003
 -0.13300000000000001          1.6194965928836721E-003
 -0.13250000000000001          1.6981600711202006E-003
 -0.13200000000000001          1.7803990395270980E-003
 -0.13150000000000001          1.8663632658034069E-003
 -0.13100000000000001          1.9562079019112533E-003
 -0.13050000000000000          2.0500941934550837E-003
 -0.13000000000000000          2.1481892909435002E-003
 -0.12950000000000000          2.2506663790547296E-003
 -0.12900000000000000          2.3577046867993227E-003
 -0.12850000000000000          2.4694903391532744E-003
 -0.12800000000000000          2.5862167346366628E-003
 -0.12750000000000000          2.7080837848457249E-003
 -0.12700000000000000          2.8352990070805153E-003
 -0.12650000000000000          2.9680773923560335E-003
 -0.12600000000000000          3.1066408857743201E-003
 -0.12550000000000000          3.2512196028000101E-003
 -0.12499999999999999          3.4020525703884917E-003
 -0.12449999999999999          3.5593864089238647E-003
 -0.12399999999999999          3.7234765729720299E-003
 -0.12349999999999998          3.8945868646674915E-003
 -0.12299999999999998          4.0729906281275052E-003
 -0.12249999999999998          4.2589695053913672E-003
 -0.12199999999999998          4.4528155998192903E-003
 -0.12149999999999998          4.6548311987671051E-003
 -0.12099999999999998          4.8653290440649078E-003
 -0.12049999999999998          5.0846314757732151E-003
 -0.12000000000000000          5.3130724613937533E-003
 -0.11950000000000000          5.5509973295746924E-003
 -0.11899999999999999          5.7987614165588910E-003
 -0.11849999999999999          6.0567317823884519E-003
 -0.11799999999999999          6.3252881788621370E-003
 -0.11749999999999999          6.6048219502840358E-003
 -0.11699999999999999          6.8957351685429175E-003
 -0.11649999999999999          7.1984425583690639E-003
 -0.11599999999999999          7.5133747287498259E-003
 -0.11549999999999999          7.8409758977593946E-003
 -0.11499999999999999          8.1817008251830053E-003
 -0.11449999999999999          8.5360207874451387E-003
 -0.11399999999999999          8.9044220896749848E-003
 -0.11349999999999999          9.2874045614793378E-003
 -0.11299999999999999          9.6854832575827832E-003
 -0.11249999999999999          1.0099188356499793E-002
 -0.11199999999999999          1.0529065494557861E-002
 -0.11149999999999999          1.0975675549212586E-002
 -0.11099999999999999          1.1439594867707081E-002
 -0.11049999999999999          1.1921418244942087E-002
 -0.10999999999999999          1.2421758442786535E-002
 -0.10949999999999999          1.2941243519662436E-002
 -0.10899999999999999          1.3480520721037725E-002
 -0.10849999999999999          1.4040259439795932E-002
 -0.10799999999999998          1.4621142684141702E-002
 -0.10749999999999998          1.5223872729283921E-002
 -0.10699999999999998          1.5849172390011754E-002
 -0.10649999999999998          1.6497781723050775E-002
 -0.10599999999999998          1.7170461553513094E-002
 -0.10549999999999998          1.7867992240172423E-002
 -0.10499999999999998          1.8591175504000274E-002
 -0.10449999999999998          1.9340834015076414E-002
 -0.10399999999999998          2.0117810098078746E-002
 -0.10349999999999998          2.0922970231705834E-002
 -0.10299999999999998          2.1757202323581873E-002
 -0.10249999999999998          2.2621414374604701E-002
 -0.10199999999999998          2.3516537725254069E-002
 -0.10149999999999998          2.4443527290121246E-002
 -0.10099999999999998          2.5403357535831589E-002
 -0.10049999999999998          2.6397032145717557E-002
  -9.9999999999999978E-002     2.7425579578584131E-002
  -9.9499999999999977E-002     2.8490044218728493E-002
  -9.8999999999999977E-002     2.9591496602968191E-002
  -9.8499999999999976E-002     3.0731034055938578E-002
  -9.7999999999999976E-002     3.1909780472502133E-002
  -9.7499999999999976E-002     3.3128878124762534E-002
  -9.6999999999999975E-002     3.4389495890993924E-002
  -9.6499999999999975E-002     3.5692823116181854E-002
  -9.5999999999999974E-002     3.7040080843062331E-002
  -9.5500000000000002E-002     3.8432527646761874E-002
  -9.5000000000000001E-002     3.9871435803991148E-002
  -9.4500000000000001E-002     4.1358099943202858E-002
  -9.4000000000000000E-002     4.2893841300657112E-002
  -9.3500000000000000E-002     4.4480016181007193E-002
  -9.2999999999999999E-002     4.6118011413608079E-002
  -9.2499999999999999E-002     4.7809231430522917E-002
  -9.1999999999999998E-002     4.9555099095896657E-002
  -9.1499999999999998E-002     5.1357073878249795E-002
  -9.0999999999999998E-002     5.3216640624383874E-002
  -9.0499999999999997E-002     5.5135301936014722E-002
  -8.9999999999999997E-002     5.7114589645992184E-002
  -8.9499999999999996E-002     5.9156068085583186E-002
  -8.8999999999999996E-002     6.1261319476682646E-002
  -8.8499999999999995E-002     6.3431962005680131E-002
  -8.7999999999999995E-002     6.5669633210629214E-002
  -8.7499999999999994E-002     6.7975994784004928E-002
  -8.6999999999999994E-002     7.0352734861228505E-002
  -8.6499999999999994E-002     7.2801567165995423E-002
  -8.5999999999999993E-002     7.5324245643938137E-002
  -8.5499999999999993E-002     7.7922531383651072E-002
  -8.4999999999999992E-002     8.0598206764508018E-002
  -8.4499999999999992E-002     8.3353098009163074E-002
  -8.3999999999999991E-002     8.6189044503595158E-002
  -8.3499999999999991E-002     8.9107902796285998E-002
  -8.2999999999999990E-002     9.2111565381382154E-002
  -8.2499999999999990E-002     9.5201938198528652E-002
  -8.1999999999999990E-002     9.8380928815164553E-002
  -8.1499999999999989E-002    0.10165045982244089     
  -8.0999999999999989E-002    0.10501247993825660     
  -8.0499999999999988E-002    0.10846898182119019     
  -7.9999999999999988E-002    0.11202195880800353     
  -7.9499999999999987E-002    0.11567344112477351     
  -7.8999999999999987E-002    0.11942548025010935     
  -7.8499999999999986E-002    0.12328010752555185     
  -7.7999999999999986E-002    0.12723939189125216     
  -7.7499999999999986E-002    0.13130540588224371     
  -7.6999999999999985E-002    0.13548022776228857     
  -7.6499999999999985E-002    0.13976595553823912     
  -7.5999999999999984E-002    0.14416468716343833     
  -7.5499999999999984E-002    0.14867853841563738     
  -7.4999999999999983E-002    0.15330961853468000     
  -7.4499999999999983E-002    0.15806004973065052     
  -7.3999999999999982E-002    0.16293200509098393     
  -7.3499999999999982E-002    0.16792761072855911     
  -7.2999999999999982E-002    0.17304897240664158     
  -7.2499999999999981E-002    0.17829824137903194     
  -7.1999999999999981E-002    0.18367752683319116     
  -7.1499999999999980E-002    0.18918895266524477     
  -7.0999999999999980E-002    0.19483465310558901     
  -7.0499999999999979E-002    0.20061672936364661     
  -6.9999999999999979E-002    0.20653730027754486     
  -6.9499999999999978E-002    0.21259846637224467     
  -6.8999999999999978E-002    0.21880233058479837     
  -6.8499999999999978E-002    0.22515089328458404     
  -6.7999999999999977E-002    0.23164616715936304     
  -6.7499999999999977E-002    0.23829012637134284     
  -6.6999999999999976E-002    0.24508472368610756     
  -6.6499999999999976E-002    0.25203195433971781     
  -6.5999999999999975E-002    0.25913375637568004     
  -6.5499999999999975E-002    0.26639200891668124     
  -6.4999999999999974E-002    0.27380867208197845     
  -6.4499999999999974E-002    0.28138563363078906     
  -6.4000000000000001E-002    0.28912465262397957     
  -6.3500000000000001E-002    0.29702746591399543     
  -6.3000000000000000E-002    0.30509579094077144     
  -6.2500000000000000E-002    0.31333127321100673     
  -6.2000000000000000E-002    0.32173550645501126     
  -6.1499999999999999E-002    0.33030995764641147     
  -6.0999999999999999E-002    0.33905606406171995     
  -6.0499999999999998E-002    0.34797533900154720     
  -5.9999999999999998E-002    0.35706906571758845     
  -5.9499999999999997E-002    0.36633844998362708     
  -5.8999999999999997E-002    0.37578469274691462     
  -5.8499999999999996E-002    0.38540896103640487     
  -5.7999999999999996E-002    0.39521229614721853     
  -5.7499999999999996E-002    0.40519566628346615     
  -5.6999999999999995E-002    0.41536001694945979     
  -5.6499999999999995E-002    0.42570610741551862     
  -5.5999999999999994E-002    0.43623460741530784     
  -5.5499999999999994E-002    0.44694610685760217     
  -5.4999999999999993E-002    0.45784106415574066     
  -5.4499999999999993E-002    0.46891988929501016     
  -5.3999999999999992E-002    0.48018293683704383     
  -5.3499999999999992E-002    0.49163036213716182     
  -5.2999999999999992E-002    0.50326217186238020     
  -5.2499999999999991E-002    0.51507834280875553     
  -5.1999999999999991E-002    0.52707863835863300     
  -5.1499999999999990E-002    0.53926270597289361     
  -5.0999999999999990E-002    0.55162999121956324     
  -5.0499999999999989E-002    0.56417986423210764     
  -4.9999999999999989E-002    0.57691157460768450     
  -4.9499999999999988E-002    0.58982421851350586     
  -4.8999999999999988E-002    0.60291675362701747     
  -4.8499999999999988E-002    0.61618789494805726     
  -4.7999999999999987E-002    0.62963610532497061     
  -4.7499999999999987E-002    0.64325978022901165     
  -4.6999999999999986E-002    0.65705719745957825     
  -4.6499999999999986E-002    0.67102623103505654     
  -4.5999999999999985E-002    0.68516475952816713     
  -4.5499999999999985E-002    0.69947064388021074     
  -4.4999999999999984E-002    0.71394155077480503     
  -4.4499999999999984E-002    0.72857484576712106     
  -4.3999999999999984E-002    0.74336783023690400     
  -4.3499999999999983E-002    0.75831750384229490     
  -4.2999999999999983E-002    0.77342053327651961     
  -4.2499999999999982E-002    0.78867326067069898     
  -4.1999999999999982E-002    0.80407207828309657     
  -4.1499999999999981E-002    0.81961329934488214     
  -4.0999999999999981E-002    0.83529256990136380     
  -4.0499999999999980E-002    0.85110520184661986     
  -3.9999999999999980E-002    0.86704672336336719     
  -3.9499999999999980E-002    0.88311273813967794     
  -3.8999999999999979E-002    0.89929835145246795     
  -3.8499999999999979E-002    0.91559823671770957     
  -3.7999999999999978E-002    0.93200687680724403     
  -3.7499999999999978E-002    0.94851873342134407     
  -3.6999999999999977E-002    0.96512772548231540     
  -3.6499999999999977E-002    0.98182739065441993     
  -3.5999999999999976E-002    0.99861131087336252     
  -3.5499999999999976E-002     1.0154725072095783     
  -3.4999999999999976E-002     1.0324035953102904     
  -3.4499999999999975E-002     1.0493972617179312     
  -3.3999999999999975E-002     1.0664462759933646     
  -3.3499999999999974E-002     1.0835429343726304     
  -3.2999999999999974E-002     1.1006791898921868     
  -3.2499999999999973E-002     1.1178470920746841     
  -3.1999999999999973E-002     1.1350382484288168     
  -3.1500000000000000E-002     1.1522439689284458     
  -3.1000000000000000E-002     1.1694553012403879     
  -3.0499999999999999E-002     1.1866628353934985     
  -2.9999999999999999E-002     1.2038569370705248     
  -2.9499999999999998E-002     1.2210275682638709     
  -2.8999999999999998E-002     1.2381641387140911     
  -2.8499999999999998E-002     1.2552560800637402     
  -2.7999999999999997E-002     1.2722925490948769     
  -2.7499999999999997E-002     1.2892622246730046     
  -2.6999999999999996E-002     1.3061541905424434     
  -2.6499999999999996E-002     1.3229573970494291     
  -2.5999999999999995E-002     1.3396600359645259     
  -2.5499999999999995E-002     1.3562508258585995     
  -2.4999999999999994E-002     1.3727181029441269     
  -2.4499999999999994E-002     1.3890490787957992     
  -2.3999999999999994E-002     1.4052311752200364     
  -2.3499999999999993E-002     1.4212515576849976     
  -2.2999999999999993E-002     1.4370965244618210     
  -2.2499999999999992E-002     1.4527524905513829     
  -2.1999999999999992E-002     1.4682057248516518     
  -2.1499999999999991E-002     1.4834418340197466     
  -2.0999999999999991E-002     1.4984469707961061     
  -2.0499999999999990E-002     1.5132072775795793     
  -1.9999999999999990E-002     1.5277083617577167     
  -1.9499999999999990E-002     1.5419356603174226     
  -1.8999999999999989E-002     1.5558739906737395     
  -1.8499999999999989E-002     1.5695083106644763     
  -1.7999999999999988E-002     1.5828235581327910     
  -1.7499999999999988E-002     1.5958037249051005     
  -1.6999999999999987E-002     1.6084329180116814     
  -1.6499999999999987E-002     1.6206958168499490     
  -1.5999999999999986E-002     1.6325763689445267     
  -1.5499999999999986E-002     1.6440584344309634     
  -1.4999999999999986E-002     1.6551260657055531     
  -1.4499999999999985E-002     1.6657629774244453     
  -1.3999999999999985E-002     1.6759531909454539     
  -1.3499999999999984E-002     1.6856802782969549     
  -1.2999999999999984E-002     1.6949279697334525     
  -1.2499999999999983E-002     1.7036802192927540     
  -1.1999999999999983E-002     1.7119201712550316     
  -1.1499999999999982E-002     1.7196311847748413     
  -1.0999999999999982E-002     1.7267971671505542     
  -1.0499999999999982E-002     1.7334013822112002     
  -9.9999999999999811E-003     1.7394267091248903     
  -9.4999999999999807E-003     1.7448558899213653     
  -8.9999999999999802E-003     1.7496719361669220     
  -8.4999999999999798E-003     1.7538579457375438     
  -7.9999999999999793E-003     1.7573963707228630     
  -7.4999999999999789E-003     1.7602707070813199     
  -6.9999999999999785E-003     1.7624646247959697     
  -6.4999999999999780E-003     1.7639614682423437     
  -5.9999999999999776E-003     1.7647448867485140     
  -5.4999999999999771E-003     1.7647992665813739     
  -4.9999999999999767E-003     1.7641090383096123     
  -4.4999999999999762E-003     1.7626586122471974     
  -3.9999999999999758E-003     1.7604324685170560     
  -3.4999999999999754E-003     1.7574144611108538     
  -2.9999999999999749E-003     1.7535895485008459     
  -2.4999999999999745E-003     1.7489428342572202     
  -1.9999999999999740E-003     1.7434589850697946     
  -1.4999999999999736E-003     1.7371234316472384     
  -9.9999999999997313E-004     1.7299219786129725     
  -4.9999999999997269E-004     1.7218410144067327     
   0.0000000000000000          1.7128669045569627     
   5.0000000000000044E-004     1.7029858851062452     
   1.0000000000000009E-003     1.6921853067286068     
   1.5000000000000013E-003     1.6804523374860771     
   2.0000000000000018E-003     1.6677747782570660     
   2.5000000000000022E-003     1.6541417074108100     
   3.0000000000000027E-003     1.6395418516946609     
   3.5000000000000031E-003     1.6239641066426138     
   4.0000000000000036E-003     1.6073981048112933     
   4.5000000000000040E-003     1.5898327769093998     
   5.0000000000000044E-003     1.5712576430026544     
   5.5000000000000049E-003     1.5516628964551720     
   6.0000000000000053E-003     1.5310394495851944     
   6.5000000000000058E-003     1.5093798583802187     
   7.0000000000000062E-003     1.4866772070939913     
   7.5000000000000067E-003     1.4629251712164431     
   8.0000000000000071E-003     1.4381181086705965     
   8.5000000000000075E-003     1.4122514115789651     
   9.0000000000000080E-003     1.3853205883635680     
   9.5000000000000084E-003     1.3573207795842639     
   1.0000000000000009E-002     1.3282486823903099     
   1.0500000000000009E-002     1.2981019657370436     
   1.1000000000000010E-002     1.2668780219365887     
   1.1500000000000010E-002     1.2345750465076191     
   1.2000000000000011E-002     1.2011918463510123     
   1.2500000000000011E-002     1.1667280731616148     
   1.3000000000000012E-002     1.1311844618815110     
   1.3500000000000012E-002     1.0945630140179261     
   1.4000000000000012E-002     1.0568664287565097     
   1.4500000000000013E-002     1.0180972341515577     
   1.5000000000000013E-002    0.97825919620722246     
   1.5500000000000014E-002    0.93735727532520974     
   1.6000000000000014E-002    0.89539714076395605     
   1.6500000000000015E-002    0.85238554248218446     
   1.7000000000000015E-002    0.80832946448223164     
   1.7500000000000016E-002    0.76323647637441949     
   1.8000000000000016E-002    0.71711551281570940     
   1.8500000000000016E-002    0.66997624087726293     
   1.9000000000000017E-002    0.62182852703116698     
   1.9500000000000017E-002    0.57268431265659414     
   2.0000000000000018E-002    0.52255774798278365     
   2.0500000000000018E-002    0.47146293567068476     
   2.1000000000000019E-002    0.41941360299445796     
   2.1500000000000019E-002    0.36642416874907946     
   2.2000000000000020E-002    0.31251132136749948     
   2.2500000000000020E-002    0.25769231889824629     
   2.3000000000000020E-002    0.20198393473763110     
   2.3500000000000021E-002    0.14540398755092987     
   2.4000000000000021E-002     8.7972945368483213E-002
   2.4500000000000022E-002     2.9712382124874370E-002
   2.5000000000000022E-002    -2.9357181792457165E-002
   2.5500000000000023E-002    -8.9212437702493652E-002
   2.6000000000000023E-002   -0.14982858081999728     
   2.6500000000000024E-002   -0.21118080408246964     
   2.7000000000000024E-002   -0.27324327604733201     
   2.7500000000000024E-002   -0.33598989612758512     
   2.8000000000000025E-002   -0.39939360192316720     
   2.8500000000000025E-002   -0.46342673343666974     
   2.9000000000000026E-002   -0.52806143147808537     
   2.9500000000000026E-002   -0.59326875965241332     
   3.0000000000000027E-002   -0.65901952430192812     
   3.0500000000000027E-002   -0.72528322346014518     
   3.1000000000000028E-002   -0.79202833817554263     
   3.1500000000000028E-002   -0.85922258036079513     
   3.2000000000000028E-002   -0.92683251934343014     