 -0.23999999999999999          0.0000000000000000     
 -0.23949999999999999          0.0000000000000000     
 -0.23899999999999999          8.3190186580479064E-015
 -0.23849999999999999          4.0011784018961293E-014
 -0.23799999999999999          1.1345039573773868E-013
 -0.23749999999999999          2.4566428854075667E-013
 -0.23699999999999999          4.4727128687917460E-013
 -0.23649999999999999          7.1793861910609972E-013
 -0.23599999999999999          1.0432634937900617E-012
 -0.23549999999999999          1.3937646855427115E-012
 -0.23499999999999999          1.7263541093248211E-012
 -0.23449999999999999          1.9882603718772168E-012
 -0.23399999999999999          2.1229674035131083E-012
 -0.23349999999999999          2.0773813926400625E-012
 -0.23299999999999998          1.8092048211018697E-012
 -0.23249999999999998          1.2934272057257584E-012
 -0.23199999999999998          5.2695497165418966E-013
 -0.23149999999999998         -4.6931648680693196E-013
 -0.23099999999999998         -1.6512791061978596E-012
 -0.23049999999999998         -2.9550779457578535E-012
 -0.22999999999999998         -4.3026636422127071E-012
 -0.22949999999999998         -5.6085282419768432E-012
 -0.22899999999999998         -6.7865721430816797E-012
 -0.22849999999999998         -7.7561096151942068E-012
 -0.22799999999999998         -8.4463065114057133E-012
 -0.22749999999999998         -8.7987179353844645E-012
 -0.22699999999999998         -8.7680978562991562E-012
 -0.22649999999999998         -8.3220764375761753E-012
 -0.22599999999999998         -7.4405769696498928E-012
 -0.22549999999999998         -6.1159533121980972E-012
 -0.22499999999999998         -4.3546243080521222E-012
 -0.22449999999999998         -2.1805968509615357E-012
 -0.22399999999999998          3.5928094422219775E-013
 -0.22349999999999998          3.1891144515607336E-012
 -0.22299999999999998          6.1980527718829337E-012
 -0.22249999999999998          9.2362117630468250E-012
 -0.22199999999999998          1.2113934555257614E-011
 -0.22150000000000000          1.4605524697651163E-011
 -0.22100000000000000          1.6457848099931026E-011
 -0.22050000000000000          1.7403437149302255E-011
 -0.22000000000000000          1.7176734810179221E-011
 -0.21950000000000000          1.5531439983425900E-011
 -0.21900000000000000          1.2256544761799966E-011
 -0.21850000000000000          7.1885191896471315E-012
 -0.21800000000000000          2.1782841905523347E-013
 -0.21750000000000000         -8.7112634256746689E-012
 -0.21700000000000000         -1.9607601942892035E-011
 -0.21650000000000000         -3.2445380201413009E-011
 -0.21600000000000000         -4.7179408824836518E-011
 -0.21550000000000000         -6.3760795124068156E-011
 -0.21500000000000000         -8.2150004028466992E-011
 -0.21450000000000000         -1.0232509778053462E-010
 -0.21400000000000000         -1.2428395451011422E-010
 -0.21350000000000000         -1.4804053509964346E-010
 -0.21299999999999999         -1.7361655170642175E-010
 -0.21249999999999999         -2.0103111269987346E-010
 -0.21199999999999999         -2.3029120256067374E-010
 -0.21149999999999999         -2.6138609811667121E-010
 -0.21099999999999999         -2.9428767541314426E-010
 -0.21049999999999999         -3.2895744775335314E-010
 -0.20999999999999999         -3.6535999133801719E-010
 -0.20949999999999999         -4.0347995917859555E-010
 -0.20899999999999999         -4.4333969011391694E-010
 -0.20849999999999999         -4.8501343239013129E-010
 -0.20799999999999999         -5.2863507818166754E-010
 -0.20749999999999999         -5.7439711561438785E-010
 -0.20699999999999999         -6.2253971362127074E-010
 -0.20649999999999999         -6.7333226509323240E-010
 -0.20599999999999999         -7.2704950405540736E-010
 -0.20549999999999999         -7.8394846849914372E-010
 -0.20499999999999999         -8.4424876128456229E-010
 -0.20449999999999999         -9.0812333616850194E-010
 -0.20399999999999999         -9.7570014243315017E-010
 -0.20349999999999999         -1.0470765944006116E-009
 -0.20299999999999999         -1.1223451250753424E-009
 -0.20249999999999999         -1.2016247723140661E-009
 -0.20199999999999999         -1.2850949025381783E-009
 -0.20149999999999998         -1.3730234555069636E-009
 -0.20099999999999998         -1.4657854806890374E-009
 -0.20049999999999998         -1.5638687039105012E-009
 -0.19999999999999998         -1.6678628238996454E-009
 -0.19949999999999998         -1.7784377693259902E-009
 -0.19899999999999998         -1.8963126332117806E-009
 -0.19849999999999998         -2.0222208420429393E-009
 -0.19799999999999998         -2.1568805019973445E-009
 -0.19749999999999998         -2.3009732499414046E-009
 -0.19699999999999998         -2.4551364139265381E-009
 -0.19649999999999998         -2.6199707615480421E-009
 -0.19600000000000001         -2.7960610074236551E-009
 -0.19550000000000001         -2.9840027290705137E-009
 -0.19500000000000001         -3.1844364555812812E-009
 -0.19450000000000001         -3.3980760920688818E-009
 -0.19400000000000001         -3.6257289470955440E-009
 -0.19350000000000001         -3.8683055726779763E-009
 -0.19300000000000000         -4.1268139359618977E-009
 -0.19250000000000000         -4.4023456981300338E-009
 -0.19200000000000000         -4.6960550238742486E-009
 -0.19150000000000000         -5.0091364974947520E-009
 -0.19100000000000000         -5.3428085371076230E-009
 -0.19050000000000000         -5.6983064874590006E-009
 -0.19000000000000000         -6.0768878074079494E-009
 -0.18950000000000000         -6.4798541553805417E-009
 -0.18900000000000000         -6.9085729876324260E-009
 -0.18850000000000000         -7.3645160393540090E-009
 -0.18800000000000000         -7.8492877302608563E-009
 -0.18750000000000000         -8.3646533761063366E-009
 -0.18700000000000000         -8.9125515461879930E-009
 -0.18650000000000000         -9.4950939047002257E-009
 -0.18600000000000000         -1.0114559266245254E-008
 -0.18550000000000000         -1.0773371664732620E-008
 -0.18500000000000000         -1.1474080834921373E-008
 -0.18450000000000000         -1.2219339628947176E-008
 -0.18400000000000000         -1.3011898663085686E-008
 -0.18350000000000000         -1.3854607547906870E-008
 -0.18300000000000000         -1.4750422854821116E-008
 -0.18250000000000000         -1.5702439833189304E-008
 -0.18200000000000000         -1.6713916594177796E-008
 -0.18149999999999999         -1.7788310059123617E-008
 -0.18099999999999999         -1.8929306695976786E-008
 -0.18049999999999999         -2.0140836866186839E-008
 -0.17999999999999999         -2.1427095703355157E-008
 -0.17949999999999999         -2.2792538341521358E-008
 -0.17899999999999999         -2.4241882048686622E-008
 -0.17849999999999999         -2.5780097155347627E-008
 -0.17799999999999999         -2.7412405387418511E-008
 -0.17749999999999999         -2.9144274684291892E-008
 -0.17699999999999999         -3.0981451871085374E-008
 -0.17649999999999999         -3.2929984560492560E-008
 -0.17599999999999999         -3.4996247085025485E-008
 -0.17549999999999999         -3.7186992994921325E-008
 -0.17499999999999999         -3.9509391688085615E-008
 -0.17449999999999999         -4.1971064412721641E-008
 -0.17399999999999999         -4.4580100112649431E-008
 -0.17349999999999999         -4.7345077544499440E-008
 -0.17299999999999999         -5.0275072406986191E-008
 -0.17249999999999999         -5.3379634074434967E-008
 -0.17199999999999999         -5.6668810723694457E-008
 -0.17149999999999999         -6.0153122037712900E-008
 -0.17099999999999999         -6.3843613493092843E-008
 -0.17049999999999998         -6.7751843886438518E-008
 -0.16999999999999998         -7.1889962046995477E-008
 -0.16949999999999998         -7.6270752144386979E-008
 -0.16899999999999998         -8.0907687090467475E-008
 -0.16849999999999998         -8.5815002400454677E-008
 -0.16799999999999998         -9.1007744876370557E-008
 -0.16749999999999998         -9.6501819923632444E-008
 -0.16699999999999998         -1.0231403818664340E-007
 -0.16649999999999998         -1.0846210946575169E-007
 -0.16599999999999998         -1.1496466362432479E-007
 -0.16549999999999998         -1.2184128122072209E-007
 -0.16499999999999998         -1.2911246213908361E-007
 -0.16449999999999998         -1.3679973274361127E-007
 -0.16399999999999998         -1.4492564203391026E-007
 -0.16349999999999998         -1.5351381538506078E-007
 -0.16299999999999998         -1.6258914439227919E-007
 -0.16249999999999998         -1.7217774972047382E-007
 -0.16199999999999998         -1.8230721192564691E-007
 -0.16149999999999998         -1.9300656316854731E-007
 -0.16099999999999998         -2.0430645738044259E-007
 -0.16049999999999998         -2.1623912353937997E-007
 -0.15999999999999998         -2.2883849994627216E-007
 -0.15949999999999998         -2.4214024242757704E-007
 -0.15899999999999997         -2.5618174998309413E-007
 -0.15849999999999997         -2.7100221830529283E-007
 -0.15799999999999997         -2.8664267987033319E-007
 -0.15749999999999997         -3.0314606888046940E-007
 -0.15699999999999997         -3.2055733352343038E-007
 -0.15649999999999997         -3.3892358787500701E-007
 -0.15599999999999997         -3.5829419984607066E-007
 -0.15549999999999997         -3.7872105339877009E-007
 -0.15499999999999997         -4.0025871318652571E-007
 -0.15449999999999997         -4.2296434512266991E-007
 -0.15399999999999997         -4.4689807411245073E-007
 -0.15349999999999997         -4.7212305673062160E-007
 -0.15299999999999997         -4.9870543697727836E-007
 -0.15249999999999997         -5.2671462308378688E-007
 -0.15200000000000000         -5.5622312312049307E-007
 -0.15150000000000000         -5.8730703301281526E-007
 -0.15100000000000000         -6.2004571570871884E-007
 -0.15049999999999999         -6.5452228725317021E-007
 -0.14999999999999999         -6.9082356492713828E-007
 -0.14949999999999999         -7.2904040546472977E-007
 -0.14899999999999999         -7.6926799562848472E-007
 -0.14849999999999999         -8.1160607195725744E-007
 -0.14799999999999999         -8.5615903233348470E-007
 -0.14749999999999999         -9.0303622728556307E-007
 -0.14699999999999999         -9.5235223056252593E-007
 -0.14649999999999999         -1.0042268060584092E-006
 -0.14599999999999999         -1.0587853533671723E-006
 -0.14549999999999999         -1.1161588712499554E-006
 -0.14499999999999999         -1.1764843552417040E-006
 -0.14449999999999999         -1.2399046309776658E-006
 -0.14399999999999999         -1.3065688881752957E-006
 -0.14349999999999999         -1.3766327869710837E-006
 -0.14299999999999999         -1.4502591044148888E-006
 -0.14249999999999999         -1.5276177537302164E-006
 -0.14199999999999999         -1.6088856136320333E-006
 -0.14149999999999999         -1.6942482077046411E-006
 -0.14099999999999999         -1.7838990135046797E-006
 -0.14049999999999999         -1.8780401194674847E-006
 -0.13999999999999999         -1.9768826188467885E-006
 -0.13949999999999999         -2.0806468446640913E-006
 -0.13899999999999998         -2.1895624162747904E-006
 -0.13849999999999998         -2.3038695308107078E-006
 -0.13799999999999998         -2.4238174652381816E-006
 -0.13749999999999998         -2.5496668393428290E-006
 -0.13699999999999998         -2.6816884497242632E-006
 -0.13649999999999998         -2.8201648256287351E-006
 -0.13599999999999998         -2.9653905718775670E-006
 -0.13550000000000001         -3.1176725317266529E-006
 -0.13500000000000001         -3.2773299144665083E-006
 -0.13450000000000001         -3.4446960691278243E-006
 -0.13400000000000001         -3.6201178552661356E-006
 -0.13350000000000001         -3.8039567041520221E-006
 -0.13300000000000001         -3.9965893777244638E-006
 -0.13250000000000001         -4.1984070807551788E-006
 -0.13200000000000001         -4.4098183062855533E-006
 -0.13150000000000001         -4.6312466516721195E-006
 -0.13100000000000001         -4.8631338674485092E-006
 -0.13050000000000000         -5.1059375425373955E-006
 -0.13000000000000000         -5.3601349098822848E-006
 -0.12950000000000000         -5.6262211155991446E-006
 -0.12900000000000000         -5.9047115502649538E-006
 -0.12850000000000000         -6.1961419824135985E-006
 -0.12800000000000000         -6.5010688729551017E-006
 -0.12750000000000000         -6.8200715620087898E-006
 -0.12700000000000000         -7.1537496872515638E-006
 -0.12650000000000000         -7.5027287583144302E-006
 -0.12600000000000000         -7.8676569160253941E-006
 -0.12550000000000000         -8.2492078333696465E-006
 -0.12499999999999999         -8.6480796074687502E-006
 -0.12449999999999999         -9.0649961238309411E-006
 -0.12399999999999999         -9.5007110841614567E-006
 -0.12349999999999998         -9.9560045954211785E-006
 -0.12299999999999998         -1.0431685966908715E-005
 -0.12249999999999998         -1.0928594693330446E-005
 -0.12199999999999998         -1.1447600985760883E-005
 -0.12149999999999998         -1.1989607918598541E-005
 -0.12099999999999998         -1.2555548765165465E-005
 -0.12049999999999998         -1.3146397026388368E-005
 -0.12000000000000000         -1.3763155281708163E-005
 -0.11950000000000000         -1.4406864690116622E-005
 -0.11899999999999999         -1.5078602702289091E-005
 -0.11849999999999999         -1.5779483770988295E-005
 -0.11799999999999999         -1.6510664546202758E-005
 -0.11749999999999999         -1.7273341575696153E-005
 -0.11699999999999999         -1.8068752426215914E-005
 -0.11649999999999999         -1.8898175812365854E-005
 -0.11599999999999999         -1.9762939596218401E-005
 -0.11549999999999999         -2.0664413125681753E-005
 -0.11499999999999999         -2.1604014397641457E-005
 -0.11449999999999999         -2.2583208612674272E-005
 -0.11399999999999999         -2.3603510181470506E-005
 -0.11349999999999999         -2.4666481178323895E-005
 -0.11299999999999999         -2.5773743775136822E-005
 -0.11249999999999999         -2.6926969212170976E-005
 -0.11199999999999999         -2.8127884337038694E-005
 -0.11149999999999999         -2.9378266417160220E-005
 -0.11099999999999999         -3.0679957155099004E-005
 -0.11049999999999999         -3.2034853774631903E-005
 -0.10999999999999999         -3.3444919501214983E-005
 -0.10949999999999999         -3.4912173866714632E-005
 -0.10899999999999999         -3.6438708099513316E-005
 -0.10849999999999999         -3.8026667504521402E-005
 -0.10799999999999998         -3.9678277400257355E-005
 -0.10749999999999998         -4.1395826632068208E-005
 -0.10699999999999998         -4.3181666377979210E-005
 -0.10649999999999998         -4.5038233839994946E-005
 -0.10599999999999998         -4.6968032021478800E-005
 -0.10549999999999998         -4.8973642888192057E-005
 -0.10499999999999998         -5.1057720139111560E-005
 -0.10449999999999998         -5.3222999810377555E-005
 -0.10399999999999998         -5.5472287859390201E-005
 -0.10349999999999998         -5.7808482835624157E-005
 -0.10299999999999998         -6.0234560589475874E-005
 -0.10249999999999998         -6.2753592825955752E-005
 -0.10199999999999998         -6.5368735420778909E-005
 -0.10149999999999998         -6.8083233954282303E-005
 -0.10099999999999998         -7.0900415682956686E-005
 -0.10049999999999998         -7.3823720797952969E-005
  -9.9999999999999978E-002    -7.6856661932988250E-005
  -9.9499999999999977E-002    -8.0002856401888096E-005
  -9.8999999999999977E-002    -8.3266014777956499E-005
  -9.8499999999999976E-002    -8.6649958272931225E-005
  -9.7999999999999976E-002    -9.0158589071956754E-005
  -9.7499999999999976E-002    -9.3795922561314105E-005
  -9.6999999999999975E-002    -9.7566091155640430E-005
  -9.6499999999999975E-002    -1.0147331215482123E-004
  -9.5999999999999974E-002    -1.0552191190385152E-004
  -9.5500000000000002E-002    -1.0971636795249003E-004
  -9.5000000000000001E-002    -1.1406123543835552E-004
  -9.4500000000000001E-002    -1.1856118115415043E-004
  -9.4000000000000000E-002    -1.2322101006067719E-004
  -9.3500000000000000E-002    -1.2804561211925472E-004
  -9.2999999999999999E-002    -1.3304001641818605E-004
  -9.2499999999999999E-002    -1.3820934959727315E-004
  -9.1999999999999998E-002    -1.4355888991792929E-004
  -9.1499999999999998E-002    -1.4909401607760898E-004
  -9.0999999999999998E-002    -1.5482020282637588E-004
  -9.0499999999999997E-002    -1.6074309036771936E-004
  -8.9999999999999997E-002    -1.6686841064525551E-004
  -8.9499999999999996E-002    -1.7320205847275313E-004
  -8.8999999999999996E-002    -1.7975005029841556E-004
  -8.8499999999999995E-002    -1.8651855177542406E-004
  -8.7999999999999995E-002    -1.9351381264035304E-004
  -8.7499999999999994E-002    -2.0074226467864880E-004
  -8.6999999999999994E-002    -2.0821045817152043E-004
  -8.6499999999999994E-002    -2.1592505467307418E-004
  -8.5999999999999993E-002    -2.2389283894231059E-004
  -8.5499999999999993E-002    -2.3212077492187460E-004
  -8.4999999999999992E-002    -2.4061595310439349E-004
  -8.4499999999999992E-002    -2.4938552279781001E-004
  -8.3999999999999991E-002    -2.5843680909720500E-004
  -8.3499999999999991E-002    -2.6777732408254094E-004
  -8.2999999999999990E-002    -2.7741466083441488E-004
  -8.2499999999999990E-002    -2.8735655678560352E-004
  -8.1999999999999990E-002    -2.9761092320677027E-004
  -8.1499999999999989E-002    -3.0818573495577505E-004
  -8.0999999999999989E-002    -3.1908920494332028E-004
  -8.0499999999999988E-002    -3.3032963912152890E-004
  -7.9999999999999988E-002    -3.4191541957020847E-004
  -7.9499999999999987E-002    -3.5385512661308398E-004
  -7.8999999999999987E-002    -3.6615746007279896E-004
  -7.8499999999999986E-002    -3.7883124699745162E-004
  -7.7999999999999986E-002    -3.9188541006212804E-004
  -7.7499999999999986E-002    -4.0532900362748639E-004
  -7.6999999999999985E-002    -4.1917122755120290E-004
  -7.6499999999999985E-002    -4.3342140402017541E-004
  -7.5999999999999984E-002    -4.4808896164078027E-004
  -7.5499999999999984E-002    -4.6318345878384960E-004
  -7.4999999999999983E-002    -4.7871459446527246E-004
  -7.4499999999999983E-002    -4.9469212705511168E-004
  -7.3999999999999982E-002    -5.1112602752109346E-004
  -7.3499999999999982E-002    -5.2802629752084413E-004
  -7.2999999999999982E-002    -5.4540302400297113E-004
  -7.2499999999999981E-002    -5.6326647455456100E-004
  -7.1999999999999981E-002    -5.8162701451523638E-004
  -7.1499999999999980E-002    -6.0049495089542731E-004
  -7.0999999999999980E-002    -6.1988091490000966E-004
  -7.0499999999999979E-002    -6.3979536587080096E-004
  -6.9999999999999979E-002    -6.6024897964578485E-004
  -6.9499999999999978E-002    -6.8125254184646942E-004
  -6.8999999999999978E-002    -7.0281682943306237E-004
  -6.8499999999999978E-002    -7.2495266461552370E-004
  -6.7999999999999977E-002    -7.4767088181436998E-004
  -6.7499999999999977E-002    -7.7098259681166142E-004
  -6.6999999999999976E-002    -7.9489874664819167E-004
  -6.6499999999999976E-002    -8.1943047965115615E-004
  -6.5999999999999975E-002    -8.4458892468875055E-004
  -6.5499999999999975E-002    -8.7038510301025657E-004
  -6.4999999999999974E-002    -8.9683025122871550E-004
  -6.4499999999999974E-002    -9.2393560192178831E-004
  -6.4000000000000001E-002    -9.5171203759884869E-004
  -6.3500000000000001E-002    -9.8017077683807937E-004
  -6.3000000000000000E-002    -1.0093229063480266E-003
  -6.2500000000000000E-002    -1.0391793840102722E-003
  -6.2000000000000000E-002    -1.0697513115696337E-003
  -6.1499999999999999E-002    -1.1010494599559676E-003
  -6.0999999999999999E-002    -1.1330848626615372E-003
  -6.0499999999999998E-002    -1.1658684852693156E-003
  -5.9999999999999998E-002    -1.1994111513627392E-003
  -5.9499999999999997E-002    -1.2337234443643070E-003
  -5.8999999999999997E-002    -1.2688159866984725E-003
  -5.8499999999999996E-002    -1.3046992575476862E-003
  -5.7999999999999996E-002    -1.3413836435844269E-003
  -5.7499999999999996E-002    -1.3788792839151678E-003
  -5.6999999999999995E-002    -1.4171962198074092E-003
  -5.6499999999999995E-002    -1.4563442036277961E-003
  -5.5999999999999994E-002    -1.4963328114912275E-003
  -5.5499999999999994E-002    -1.5371717028363346E-003
  -5.4999999999999993E-002    -1.5788701481927211E-003
  -5.4499999999999993E-002    -1.6214372269324944E-003
  -5.3999999999999992E-002    -1.6648816300140349E-003
  -5.3499999999999992E-002    -1.7092119573984361E-003
  -5.2999999999999992E-002    -1.7544365615421724E-003
  -5.2499999999999991E-002    -1.8005633837566495E-003
  -5.1999999999999991E-002    -1.8476003525010219E-003
  -5.1499999999999990E-002    -1.8955545027870471E-003
  -5.0999999999999990E-002    -1.9444328871783788E-003
  -5.0499999999999989E-002    -1.9942423322588873E-003
  -4.9999999999999989E-002    -2.0449890116233608E-003
  -4.9499999999999988E-002    -2.0966786640433561E-003
  -4.8999999999999988E-002    -2.1493170427689615E-003
  -4.8499999999999988E-002    -2.2029088864265155E-003
  -4.7999999999999987E-002    -2.2574589066248242E-003
  -4.7499999999999987E-002    -2.3129711908136891E-003
  -4.6999999999999986E-002    -2.3694494921206715E-003
  -4.6499999999999986E-002    -2.4268967248607188E-003
  -4.5999999999999985E-002    -2.4853156318442966E-003
  -4.5499999999999985E-002    -2.5447086372058511E-003
  -4.4999999999999984E-002    -2.6050773389465929E-003
  -4.4499999999999984E-002    -2.6664221879464187E-003
  -4.3999999999999984E-002    -2.7287435093926371E-003
  -4.3499999999999983E-002    -2.7920411004853209E-003
  -4.2999999999999983E-002    -2.8563143264178489E-003
  -4.2499999999999982E-002    -2.9215610284491662E-003
  -4.1999999999999982E-002    -2.9877785346611192E-003
  -4.1499999999999981E-002    -3.0549641629361440E-003
  -4.0999999999999981E-002    -3.1231139340515031E-003
  -4.0499999999999980E-002    -3.1922234239255129E-003
  -3.9999999999999980E-002    -3.2622875701705592E-003
  -3.9499999999999980E-002    -3.3333002809150412E-003
  -3.8999999999999979E-002    -3.4052544819734333E-003
  -3.8499999999999979E-002    -3.4781424410058222E-003
  -3.7999999999999978E-002    -3.5519559126814607E-003
  -3.7499999999999978E-002    -3.6266850368606527E-003
  -3.6999999999999977E-002    -3.7023195007625711E-003
  -3.6499999999999977E-002    -3.7788481089214114E-003
  -3.5999999999999976E-002    -3.8562588018946908E-003
  -3.5499999999999976E-002    -3.9345374599906689E-003
  -3.4999999999999976E-002    -4.0136699801177188E-003
  -3.4499999999999975E-002    -4.0936417848729048E-003
  -3.3999999999999975E-002    -4.1744358835918514E-003
  -3.3499999999999974E-002    -4.2560352879088513E-003
  -3.2999999999999974E-002    -4.3384214101726982E-003
  -3.2499999999999973E-002    -4.4215755820387267E-003
  -3.1999999999999973E-002    -4.5054768765638731E-003
  -3.1500000000000000E-002    -4.5901040054519109E-003
  -3.1000000000000000E-002    -4.6754337871322132E-003
  -3.0499999999999999E-002    -4.7614423560341373E-003
  -2.9999999999999999E-002    -4.8481047756027754E-003
  -2.9499999999999998E-002    -4.9353938153397017E-003
  -2.8999999999999998E-002    -5.0232829663535879E-003
  -2.8499999999999998E-002    -5.1117429911867601E-003
  -2.7999999999999997E-002    -5.2007443269816503E-003
  -2.7499999999999997E-002    -5.2902555386316105E-003
  -2.6999999999999996E-002    -5.3802448716907640E-003
  -2.6499999999999996E-002    -5.4706789967056153E-003
  -2.5999999999999995E-002    -5.5615223030185575E-003
  -2.5499999999999995E-002    -5.6527392705416780E-003
  -2.4999999999999994E-002    -5.7442915656389631E-003
  -2.4499999999999994E-002    -5.8361408392821525E-003
  -2.3999999999999994E-002    -5.9282476261371658E-003
  -2.3499999999999993E-002    -6.0205697662855679E-003
  -2.2999999999999993E-002    -6.1130653943975450E-003
  -2.2499999999999992E-002    -6.2056902242407820E-003
  -2.1999999999999992E-002    -6.2983991078866021E-003
  -2.1499999999999991E-002    -6.3911450704788042E-003
  -2.0999999999999991E-002    -6.4838797488724620E-003
  -2.0499999999999990E-002    -6.5765548831583330E-003
  -1.9999999999999990E-002    -6.6691185382561254E-003
  -1.9499999999999990E-002    -6.7615190870485044E-003
  -1.8999999999999989E-002    -6.8537032297627705E-003
  -1.8499999999999989E-002    -6.9456167213112312E-003
  -1.7999999999999988E-002    -7.0372032893031879E-003
  -1.7499999999999988E-002    -7.1284058380220693E-003
  -1.6999999999999987E-002    -7.2191669530301469E-003
  -1.6499999999999987E-002    -7.3094254660331683E-003
  -1.5999999999999986E-002    -7.3991221099613813E-003
  -1.5499999999999986E-002    -7.4881940678340163E-003
  -1.4999999999999986E-002    -7.5765770914137560E-003
  -1.4499999999999985E-002    -7.6642066310788660E-003
  -1.3999999999999985E-002    -7.7510176412162041E-003
  -1.3499999999999984E-002    -7.8369412757081265E-003
  -1.2999999999999984E-002    -7.9219098389703459E-003
  -1.2499999999999983E-002    -8.0058551107340011E-003
  -1.1999999999999983E-002    -8.0887047269176532E-003
  -1.1499999999999982E-002    -8.1703884132910444E-003
  -1.0999999999999982E-002    -8.2508338316860767E-003
  -1.0499999999999982E-002    -8.3299662666547619E-003
  -9.9999999999999811E-003    -8.4077123113250538E-003
  -9.4999999999999807E-003    -8.4839967275455938E-003
  -8.9999999999999802E-003    -8.5587419945977808E-003
  -8.4999999999999798E-003    -8.6318711609873824E-003
  -7.9999999999999793E-003    -8.7033056232994448E-003
  -7.4999999999999789E-003    -8.7729670967498959E-003
  -6.9999999999999785E-003    -8.8407741147023336E-003
  -6.4999999999999780E-003    -8.9066472730047891E-003
  -5.9999999999999776E-003    -8.9705039123832986E-003
  -5.4999999999999771E-003    -9.0322632840564854E-003
  -4.9999999999999767E-003    -9.0918429619902749E-003
  -4.4999999999999762E-003    -9.1491588542007493E-003
  -3.9999999999999758E-003    -9.2041274312962551E-003
  -3.4999999999999754E-003    -9.2566648932653657E-003
  -2.9999999999999749E-003    -9.3066865913485272E-003
  -2.4999999999999745E-003    -9.3541076742038147E-003
  -1.9999999999999740E-003    -9.3988436124813751E-003
  -1.4999999999999736E-003    -9.4408090860707769E-003
  -9.9999999999997313E-004    -9.4799191489541579E-003
  -4.9999999999997269E-004    -9.5160893577004649E-003
   0.0000000000000000         -9.5492342389544224E-003
   5.0000000000000044E-004    -9.5792670313924674E-003
   1.0000000000000009E-003    -9.6061029635774453E-003
   1.5000000000000013E-003    -9.6296564448357172E-003
   2.0000000000000018E-003    -9.6498427130716387E-003
   2.5000000000000022E-003    -9.6665754102751786E-003
   3.0000000000000027E-003    -9.6797711956675171E-003
   3.5000000000000031E-003    -9.6893452404985952E-003
   4.0000000000000036E-003    -9.6952145706315843E-003
   4.5000000000000040E-003    -9.6972963046442484E-003
   5.0000000000000044E-003    -9.6955100955479351E-003
   5.5000000000000049E-003    -9.6897756884872198E-003
   6.0000000000000053E-003    -9.6800109526238784E-003
   6.5000000000000058E-003    -9.6661382956860567E-003
   7.0000000000000062E-003    -9.6480797766978661E-003
   7.5000000000000067E-003    -9.6257576914481890E-003
   8.0000000000000071E-003    -9.5990961982808064E-003
   8.5000000000000075E-003    -9.5680188856434936E-003
   9.0000000000000080E-003    -9.5324522378610436E-003
   9.5000000000000084E-003    -9.4923225066195840E-003
   1.0000000000000009E-002    -9.4475601081524564E-003
   1.0500000000000009E-002    -9.3980948507990346E-003
   1.1000000000000010E-002    -9.3438592347032216E-003
   1.1500000000000010E-002    -9.2847878500605004E-003
   1.2000000000000011E-002    -9.2208181388946688E-003
   1.2500000000000011E-002    -9.1518869466751286E-003
   1.3000000000000012E-002    -9.0779364266649655E-003
   1.3500000000000012E-002    -8.9989079642095078E-003
   1.4000000000000012E-002    -8.9147472111839807E-003
   1.4500000000000013E-002    -8.8253993436086149E-003
   1.5000000000000013E-002    -8.7308133760428154E-003
   1.5500000000000014E-002    -8.6309413156000006E-003
   1.6000000000000014E-002    -8.5257354381958559E-003
   1.6500000000000015E-002    -8.4151512866084358E-003
   1.7000000000000015E-002    -8.2991477568681929E-003
   1.7500000000000016E-002    -8.1776858800513188E-003
   1.8000000000000016E-002    -8.0507311783537729E-003
   1.8500000000000016E-002    -7.9182503184174139E-003
   1.9000000000000017E-002    -7.7802142553480697E-003
   1.9500000000000017E-002    -7.6365967078723500E-003
   2.0000000000000018E-002    -7.4873749573305809E-003
   2.0500000000000018E-002    -7.3325292089983403E-003
   2.1000000000000019E-002    -7.1720438064041270E-003
   2.1500000000000019E-002    -7.0059055410832795E-003
   2.2000000000000020E-002    -6.8341043228395577E-003
   2.2500000000000020E-002    -6.6566336067904030E-003
   2.3000000000000020E-002    -6.4734893686581169E-003
   2.3500000000000021E-002    -6.2846723097776547E-003
   2.4000000000000021E-002    -6.0901855312892206E-003
   2.4500000000000022E-002    -5.8900362049126428E-003
   2.5000000000000022E-002    -5.6842355437856850E-003
   2.5500000000000023E-002    -5.4727987233467688E-003
   2.6000000000000023E-002    -5.2557450227965503E-003
   2.6500000000000024E-002    -5.0330977019721179E-003
   2.7000000000000024E-002    -4.8048844708880861E-003
   2.7500000000000024E-002    -4.5711371871502635E-003
   2.8000000000000025E-002    -4.3318915494286233E-003
   2.8500000000000025E-002    -4.0871873154080746E-003
   2.9000000000000026E-002    -3.8370680334351521E-003
   2.9500000000000026E-002    -3.5815811930372896E-003
   3.0000000000000027E-002    -3.3207782251993053E-003
   3.0500000000000027E-002    -3.0547143357447983E-003
   3.1000000000000028E-002    -2.7834492684622788E-003
   3.1500000000000028E-002    -2.5070467722182587E-003
   3.2000000000000028E-002    -2.2255753750859784E-003