 -0.23999999999999999          0.0000000000000000     
 -0.23949999999999999          1.6097916714268197E-004
 -0.23899999999999999          4.0450846743763855E-004
 -0.23849999999999999          5.8532873125519483E-004
 -0.23799999999999999          5.3364314347765368E-004
 -0.23749999999999999          1.0836190476095492E-004
 -0.23699999999999999         -7.5167863463916585E-004
 -0.23649999999999999         -1.9915957035135040E-003
 -0.23599999999999999         -3.4296777397179769E-003
 -0.23549999999999999         -4.7770297884606495E-003
 -0.23499999999999999         -5.6862226108420205E-003
 -0.23449999999999999         -5.8210659326921703E-003
 -0.23399999999999999         -4.9344770030198427E-003
 -0.23349999999999999         -2.9387871709837844E-003
 -0.23299999999999998          4.6787578430876504E-005
 -0.23249999999999998          3.6832616271731296E-003
 -0.23199999999999998          7.4393073167363412E-003
 -0.23149999999999998          1.0657363355709231E-002
 -0.23099999999999998          1.2649355267615152E-002
 -0.23049999999999998          1.2807104484075078E-002
 -0.22999999999999998          1.0708994148081828E-002
 -0.22949999999999998          6.2046303226468771E-003
 -0.22899999999999998         -5.3770097434466257E-004
 -0.22849999999999998         -9.0297381341300498E-003
 -0.22799999999999998         -1.8509341568426069E-002
 -0.22749999999999998         -2.8027300345114969E-002
 -0.22699999999999998         -3.6561149973602075E-002
 -0.22649999999999998         -4.3138033859762781E-002
 -0.22599999999999998         -4.6947384019951223E-002
 -0.22549999999999998         -4.7426300561292739E-002
 -0.22499999999999998         -4.4305599719413793E-002
 -0.22449999999999998         -3.7611453430617781E-002
 -0.22399999999999998         -2.7624973984788984E-002
 -0.22349999999999998         -1.4808977037744392E-002
 -0.22299999999999998          2.8409888697899371E-004
 -0.22249999999999998          1.7107333063249526E-002
 -0.22199999999999998          3.5202179907745323E-002
 -0.22150000000000000          5.4257730152634742E-002
 -0.22100000000000000          7.4139578624072805E-002
 -0.22050000000000000          9.4888309365680407E-002
 -0.22000000000000000         0.11669164761780110     
 -0.21950000000000000         0.13983901889984554     
 -0.21900000000000000         0.16466781726772581     
 -0.21850000000000000         0.19151137791658895     
 -0.21800000000000000         0.22065462911944794     
 -0.21750000000000000         0.25230104704225320     
 -0.21700000000000000         0.28655078550880431     
 -0.21650000000000000         0.32338780120691346     
 -0.21600000000000000         0.36267042062049598     
 -0.21550000000000000         0.40412596200440321     
 -0.21500000000000000         0.44734477974006620     
 -0.21450000000000000         0.49177936859983362     
 -0.21400000000000000         0.53675340253017390     
 -0.21350000000000000         0.58148520904872547     
 -0.21299999999999999         0.62513618019929107     
 -0.21249999999999999         0.66688560673757102     
 -0.21199999999999999         0.70603029136931661     
 -0.21149999999999999         0.74210514096167279     
 -0.21099999999999999         0.77500636430215020     
 -0.21049999999999999         0.80510156958716494     
 -0.20999999999999999         0.83330826302140037     
 -0.20949999999999999         0.86111138997228420     
 -0.20899999999999999         0.89051926470027443     
 -0.20849999999999999         0.92393853803156456     
 -0.20799999999999999         0.96398840665374808     
 -0.20749999999999999          1.0132573654912198     
 -0.20699999999999999          1.0740438638249528     
 -0.20649999999999999          1.1481066077957875     
 -0.20599999999999999          1.2364632311580086     
 -0.20549999999999999          1.3392714582910079     
 -0.20499999999999999          1.4558120217940362     
 -0.20449999999999999          1.5845895764562017     
 -0.20399999999999999          1.7235256322606438     
 -0.20349999999999999          1.8702436078865494     
 -0.20299999999999999          2.0223907958768654     
 -0.20249999999999999          2.1779680954092022     
 -0.20199999999999999          2.3356115468509620     
 -0.20149999999999998          2.4947983116938048     
 -0.20099999999999998          2.6559459442151718     
 -0.20049999999999998          2.8204026763579138     
 -0.19999999999999998          2.9903109373780570     
 -0.19949999999999998          3.1684042724679773     
 -0.19899999999999998          3.3577390327955543     
 -0.19849999999999998          3.5614198216850008     
 -0.19799999999999998          3.7823441238610158     
 -0.19749999999999998          4.0230028255832027     
 -0.19699999999999998          4.2853733167991246     
 -0.19649999999999998          4.5708771677522080     
 -0.19600000000000001          4.8804290378497583     
 -0.19550000000000001          5.2145539080555645     
 -0.19500000000000001          5.5735136890327190     
 -0.19450000000000001          5.9574638620192584     
 -0.19400000000000001          6.3666097043641674     
 -0.19350000000000001          6.8013044467341057     
 -0.19300000000000000          7.2621175340026483     
 -0.19250000000000000          7.7498714186633144     
 -0.19200000000000000          8.2656535867065486     
 -0.19150000000000000          8.8108097873051126     
 -0.19100000000000000          9.3869185152203052     
 -0.19050000000000000          9.9958085554124416     
 -0.19000000000000000          10.639554545087234     
 -0.18950000000000000          11.320522588037150     
 -0.18900000000000000          12.041373505181104     
 -0.18850000000000000          12.805117517332850     
 -0.18800000000000000          13.615088711160130     
 -0.18750000000000000          14.475000022758245     
 -0.18700000000000000          15.388839398006819     
 -0.18650000000000000          16.360804859799323     
 -0.18600000000000000          17.395292534899681     
 -0.18550000000000000          18.496725379103331     
 -0.18500000000000000          19.669510106698453     
 -0.18450000000000000          20.917974168553830     
 -0.18400000000000000          22.246318124422132     
 -0.18350000000000000          23.658691871338725     
 -0.18300000000000000          25.159186586115688     
 -0.18250000000000000          26.751993403294840     
 -0.18200000000000000          28.441424623236536     
 -0.18149999999999999          30.232112154677566     
 -0.18099999999999999          32.129020057872218     
 -0.18049999999999999          34.137608121564178     
 -0.17999999999999999          36.263866847559640     
 -0.17949999999999999          38.514266781920206     
 -0.17899999999999999          40.895891898012508     
 -0.17849999999999999          43.416438650127709     
 -0.17799999999999999          46.084170768255802     
 -0.17749999999999999          48.907806911470061     
 -0.17699999999999999          51.896745365816670     
 -0.17649999999999999          55.060872846104189     
 -0.17599999999999999          58.410753685286679     
 -0.17549999999999999          61.957433992100917     
 -0.17499999999999999          65.712459306676806     
 -0.17449999999999999          69.688027409148035     
 -0.17399999999999999          73.896739643193911     
 -0.17349999999999999          78.351631187509923     
 -0.17299999999999999          83.066255815260547     
 -0.17249999999999999          88.054592348659241     
 -0.17199999999999999          93.331090842220078     
 -0.17149999999999999          98.910577033697365     
 -0.17099999999999999          104.80884408494850     
 -0.17049999999999998          111.04241461357745     
 -0.16999999999999998          117.62876490244764     
 -0.16949999999999998          124.58675738163922     
 -0.16899999999999998          131.93618350260209     
 -0.16849999999999998          139.69880449493442     
 -0.16799999999999998          147.89726847592257     
 -0.16749999999999998          156.55580474986584     
 -0.16699999999999998          165.69976838684707     
 -0.16649999999999998          175.35598074907364     
 -0.16599999999999998          185.55204408140582     
 -0.16549999999999998          196.31655509626552     
 -0.16499999999999998          207.67920717780294     
 -0.16449999999999998          219.67058986418175     
 -0.16399999999999998          232.32261027377223     
 -0.16349999999999998          245.66872602195684     
 -0.16299999999999998          259.74391467219760     
 -0.16249999999999998          274.58521333955707     
 -0.16199999999999998          290.23220423653709     
 -0.16149999999999998          306.72685663513175     
 -0.16099999999999998          324.11342339661644     
 -0.16049999999999998          342.43922907522756     
 -0.15999999999999998          361.75343665484968     
 -0.15949999999999998          382.10831100013695     
 -0.15899999999999997          403.55758993750101     
 -0.15849999999999997          426.15766311485186     
 -0.15799999999999997          449.96665251510285     
 -0.15749999999999997          475.04490856832399     
 -0.15699999999999997          501.45536875316827     
 -0.15649999999999997          529.26249798181505     
 -0.15599999999999997          558.53415137703712     
 -0.15549999999999997          589.34218823961055     
 -0.15499999999999997          621.76102990303912     
 -0.15449999999999997          655.87020151855654     
 -0.15399999999999997          691.75261411229985     
 -0.15349999999999997          729.49617105557945     
 -0.15299999999999997          769.19183111437565     
 -0.15249999999999997          810.93748875462370     
 -0.15200000000000000          854.83220787021696     
 -0.15150000000000000          900.98262726691814     
 -0.15100000000000000          949.49650703079305     
 -0.15049999999999999          1000.4897168064890     
 -0.14999999999999999          1054.0781159660294     
 -0.14949999999999999          1110.3859586357978     
 -0.14899999999999999          1169.5435721509029     
 -0.14849999999999999          1231.6826144998654     
 -0.14799999999999999          1296.9457655737237     
 -0.14749999999999999          1365.4793028663048     
 -0.14699999999999999          1437.4368348026892     
 -0.14649999999999999          1512.9774410916320     
 -0.14599999999999999          1592.2704591817051     
 -0.14549999999999999          1675.4907972635592     
 -0.14499999999999999          1762.8195998894776     
 -0.14449999999999999          1854.4493848049274     
 -0.14399999999999999          1950.5751988821980     
 -0.14349999999999999          2051.4024838579930     
 -0.14299999999999999          2157.1442882378178     
 -0.14249999999999999          2268.0266460705893     
 -0.14199999999999999          2384.2769268560178     
 -0.14149999999999999          2506.1396447024117     
 -0.14099999999999999          2633.8652945486401     
 -0.14049999999999999          2767.7187351685934     
 -0.13999999999999999          2907.9747344774751     
 -0.13949999999999999          3054.9170761297828     
 -0.13899999999999998          3208.8426261037594     
 -0.13849999999999998          3370.0634300978427     
 -0.13799999999999998          3538.8971339491773     
 -0.13749999999999998          3715.6795775936225     
 -0.13699999999999998          3900.7584229399954     
 -0.13649999999999998          4094.4888583015918     
 -0.13599999999999998          4297.2464347554269     
 -0.13550000000000001          4509.4250731453621     
 -0.13500000000000001          4731.4245786609499     
 -0.13450000000000001          4963.6624894732686     
 -0.13400000000000001          5206.5815794842274     
 -0.13350000000000001          5460.6257028706859     
 -0.13300000000000001          5726.2758664159555     
 -0.13250000000000001          6004.0141354986190     
 -0.13200000000000001          6294.3558107621866     
 -0.13150000000000001          6597.8249329514238     
 -0.13100000000000001          6914.9679812055820     
 -0.13050000000000000          7246.3556020722281     
 -0.13000000000000000          7592.5573973044920     
 -0.12950000000000000          7954.1937005188902     
 -0.12900000000000000          8331.8968087496050     
 -0.12850000000000000          8726.3082143320316     
 -0.12800000000000000          9138.1145029879990     
 -0.12750000000000000          9568.0205738129371     
 -0.12700000000000000          10016.753667474699     
 -0.12650000000000000          10485.065323863357     
 -0.12600000000000000          10973.738110598020     
 -0.12550000000000000          11483.580320458357     
 -0.12499999999999999          12015.430073396466     
 -0.12449999999999999          12570.144484491058     
 -0.12399999999999999          13148.623197817098     
 -0.12349999999999998          13751.805124929782     
 -0.12299999999999998          14380.629221632698     
 -0.12249999999999998          15036.094274494328     
 -0.12199999999999998          15719.228191083759     
 -0.12149999999999998          16431.095222027605     
 -0.12099999999999998          17172.776386915986     
 -0.12049999999999998          17945.429698314969     
 -0.12000000000000000          18750.189503012494     
 -0.11950000000000000          19588.295515600083     
 -0.11899999999999999          20460.976971130389     
 -0.11849999999999999          21369.498181764233     
 -0.11799999999999999          22315.215294872716     
 -0.11749999999999999          23299.505531454168     
 -0.11699999999999999          24323.756753577247     
 -0.11649999999999999          25389.435069872459     
 -0.11599999999999999          26498.039968936988     
 -0.11549999999999999          27651.140896388897     
 -0.11499999999999999          28850.329271649796     
 -0.11449999999999999          30097.260993299613     
 -0.11399999999999999          31393.605363113827     
 -0.11349999999999999          32741.110884537527     
 -0.11299999999999999          34141.612209739629     
 -0.11249999999999999          35596.946010396219     
 -0.11199999999999999          37109.036970898960     
 -0.11149999999999999          38679.833092779270     
 -0.11099999999999999          40311.348215627106     
 -0.11049999999999999          42005.694989070253     
 -0.10999999999999999          43764.983060514365     
 -0.10949999999999999          45591.430452008732     
 -0.10899999999999999          47487.318132278670     
 -0.10849999999999999          49454.943894991287     
 -0.10799999999999998          51496.718152943940     
 -0.10749999999999998          53615.058421834241     
 -0.10699999999999998          55812.497218284916     
 -0.10649999999999998          58091.638861454325     
 -0.10599999999999998          60455.149950519291     
 -0.10549999999999998          62905.800032007450     
 -0.10499999999999998          65446.316860922001     
 -0.10449999999999998          68079.637742693594     
 -0.10399999999999998          70808.638008301350     
 -0.10349999999999998          73636.384690165549     
 -0.10299999999999998          76565.886547912087     
 -0.10249999999999998          79600.447420714539     
 -0.10199999999999998          82743.188543815486     
 -0.10149999999999998          85997.560924499092     
 -0.10099999999999998          89366.971273652656     
 -0.10049999999999998          92854.918064947764     
  -9.9999999999999978E-002     96464.992758325156     
  -9.9499999999999977E-002     100200.76840551093     
  -9.8999999999999977E-002     104066.00949758131     
  -9.8499999999999976E-002     108064.62268139079     
  -9.7999999999999976E-002     112200.49822164344     
  -9.7499999999999976E-002     116477.52701571764     
  -9.6999999999999975E-002     120899.85627420153     
  -9.6499999999999975E-002     125471.64797586770     
  -9.5999999999999974E-002     130197.04924001748     
  -9.5500000000000002E-002     135080.50142260845     
  -9.5000000000000001E-002     140126.53187002602     
  -9.4500000000000001E-002     145339.74530882761     
  -9.4000000000000000E-002     150724.59306546598     
  -9.3500000000000000E-002     156285.99516460445     
  -9.2999999999999999E-002     162028.67733308260     
  -9.2499999999999999E-002     167957.45717577136     
  -9.1999999999999998E-002     174077.37781255756     
  -9.1499999999999998E-002     180393.64157870942     
  -9.0999999999999998E-002     186911.17139079969     
  -9.0499999999999997E-002     193635.41130096035     
  -8.9999999999999997E-002     200571.37688816525     
  -8.9499999999999996E-002     207724.77854825894     
  -8.8999999999999996E-002     215101.09721987421     
  -8.8499999999999995E-002     222706.12443114555     
  -8.7999999999999995E-002     230545.43133577029     
  -8.7499999999999994E-002     238625.01544900413     
  -8.6999999999999994E-002     246950.58963401581     
  -8.6499999999999994E-002     255528.40401278669     
  -8.5999999999999993E-002     264364.23868901609     
  -8.5499999999999993E-002     273464.55233951670     
  -8.4999999999999992E-002     282835.52805274562     
  -8.4499999999999992E-002     292483.53363487392     
  -8.3999999999999991E-002     302414.71195372019     
  -8.3499999999999991E-002     312635.76853846107     
  -8.2999999999999990E-002     323153.27490938513     
  -8.2499999999999990E-002     333973.67443354754     
  -8.1999999999999990E-002     345103.49260490283     
  -8.1499999999999989E-002     356549.62783019268     
  -8.0999999999999989E-002     368319.34718803526     
  -8.0499999999999988E-002     380419.40852598392     
  -7.9999999999999988E-002     392856.44570210774     
  -7.9499999999999987E-002     405638.23261746566     
  -7.8999999999999987E-002     418771.71670323622     
  -7.8499999999999986E-002     432263.64938509953     
  -7.7999999999999986E-002     446121.74997623044     
  -7.7499999999999986E-002     460352.85278962832     
  -7.6999999999999985E-002     474964.45922388718     
  -7.6499999999999985E-002     489963.38264862704     
  -7.5999999999999984E-002     505357.56271054945     
  -7.5499999999999984E-002     521154.64536640421     
  -7.4999999999999983E-002     537361.31888504676     
  -7.4499999999999983E-002     553985.65662056860     
  -7.3999999999999982E-002     571035.38752079546     
  -7.3499999999999982E-002     588517.30540971039     
  -7.2999999999999982E-002     606439.41783874133     
  -7.2499999999999981E-002     624808.73214738071     
  -7.1999999999999981E-002     643634.31593594421     
  -7.1499999999999980E-002     662921.89542932669     
  -7.0999999999999980E-002     682679.47272176575     
  -7.0499999999999979E-002     702915.03573419596     
  -6.9999999999999979E-002     723634.51396594616     
  -6.9499999999999978E-002     744847.65154157300     
  -6.8999999999999978E-002     766559.98763310723     
  -6.8499999999999978E-002     788778.96326413681     
  -6.7999999999999977E-002     811510.99719725223     
  -6.7499999999999977E-002     834764.63453861279     
  -6.6999999999999976E-002     858546.16996518755     
  -6.6499999999999976E-002     882862.72577931732     
  -6.5999999999999975E-002     907721.87719361205     
  -6.5499999999999975E-002     933130.44102704804     
  -6.4999999999999974E-002     959094.57731685182     
  -6.4499999999999974E-002     985622.02245511627     
  -6.4000000000000001E-002     1012717.1514199167     
  -6.3500000000000001E-002     1040388.5608257363     
  -6.3000000000000000E-002     1068640.7652555825     
  -6.2500000000000000E-002     1097479.2146136323     
  -6.2000000000000000E-002     1126910.6282613492     
  -6.1499999999999999E-002     1156941.1658737729     
  -6.0999999999999999E-002     1187573.9264115090     
  -6.0499999999999998E-002     1218816.3553863540     
  -5.9999999999999998E-002     1250673.5569244665     
  -5.9499999999999997E-002     1283148.8609694177     
  -5.8999999999999997E-002     1316247.3015420246     
  -5.8499999999999996E-002     1349975.2520302483     
  -5.7999999999999996E-002     1384334.9658862939     
  -5.7499999999999996E-002     1419329.7107295007     
  -5.6999999999999995E-002     1454963.8012591084     
  -5.6499999999999995E-002     1491238.9748644773     
  -5.5999999999999994E-002     1528159.7351933168     
  -5.5499999999999994E-002     1565727.5285600182     
  -5.4999999999999993E-002     1603943.9376266357     
  -5.4499999999999993E-002     1642811.1759529738     
  -5.3999999999999992E-002     1682331.7559329169     
  -5.3499999999999992E-002     1722506.2478383677     
  -5.2999999999999992E-002     1763333.7953806203     
  -5.2499999999999991E-002     1804817.7786648851     
  -5.1999999999999991E-002     1846956.1709092408     
  -5.1499999999999990E-002     1889747.7711325614     
  -5.0999999999999990E-002     1933191.2950203028     
  -5.0499999999999989E-002     1977287.1580148041     
  -4.9999999999999989E-002     2022030.4321295628     
  -4.9499999999999988E-002     2067423.0905182455     
  -4.8999999999999988E-002     2113456.2447109586     
  -4.8499999999999988E-002     2160129.9742720099     
  -4.7999999999999987E-002     2207438.9623746704     
  -4.7499999999999987E-002     2255379.0609823950     
  -4.6999999999999986E-002     2303942.7285283664     
  -4.6499999999999986E-002     2353127.3845062787     
  -4.5999999999999985E-002     2402922.1403159667     
  -4.5499999999999985E-002     2453322.2828420419     
  -4.4999999999999984E-002     2504322.9288660567     
  -4.4499999999999984E-002     2555915.1372211669     
  -4.3999999999999984E-002     2608088.8059874065     
  -4.3499999999999983E-002     2660835.0063409433     
  -4.2999999999999983E-002     2714142.9046315476     
  -4.2499999999999982E-002     2768000.8732217792     
  -4.1999999999999982E-002     2822394.2584280996     
  -4.1499999999999981E-002     2877312.2555363271     
  -4.0999999999999981E-002     2932742.3825508635     
  -4.0499999999999980E-002     2988672.8223743262     
  -3.9999999999999980E-002     3045084.0130927237     
  -3.9499999999999980E-002     3101965.4567360105     
  -3.8999999999999979E-002     3159297.6990128532     
  -3.8499999999999979E-002     3217062.3658228647     
  -3.7999999999999978E-002     3275247.9926111829     
  -3.7499999999999978E-002     3333825.0657364074     
  -3.6999999999999977E-002     3392786.7376889680     
  -3.6499999999999977E-002     3452100.8534138650     
  -3.5999999999999976E-002     3511755.0615516920     
  -3.5499999999999976E-002     3571720.5988775697     
  -3.4999999999999976E-002     3631972.8146577198     
  -3.4499999999999975E-002     3692494.8769947365     
  -3.3999999999999975E-002     3753254.0367137771     
  -3.3499999999999974E-002     3814233.4004537277     
  -3.2999999999999974E-002     3875400.3605913147     
  -3.2499999999999973E-002     3936732.3695139810     
  -3.1999999999999973E-002     3998194.9710300304     
  -3.1500000000000000E-002     4059768.1029406302     
  -3.1000000000000000E-002     4121421.5997768845     
  -3.0499999999999999E-002     4183114.7407457530     
  -2.9999999999999999E-002     4244817.0824071243     
  -2.9499999999999998E-002     4306500.0540437736     
  -2.8999999999999998E-002     4368130.2090869509     
  -2.8499999999999998E-002     4429658.1091706008     
  -2.7999999999999997E-002     4491062.3331898376     
  -2.7499999999999997E-002     4552305.8189119976     
  -2.6999999999999996E-002     4613346.8395924512     
  -2.6499999999999996E-002     4674149.1917926688     
  -2.5999999999999995E-002     4734673.9582589176     
  -2.5499999999999995E-002     4794879.5640617367     
  -2.4999999999999994E-002     4854728.2081471831     
  -2.4499999999999994E-002     4914169.7257055268     
  -2.3999999999999994E-002     4973165.1596662942     
  -2.3499999999999993E-002     5031673.7520331964     
  -2.2999999999999993E-002     5089652.4811540619     
  -2.2499999999999992E-002     5147046.6877174098     
  -2.1999999999999992E-002     5203823.7021846157     
  -2.1499999999999991E-002     5259930.0621428136     
  -2.0999999999999991E-002     5315310.1996850017     
  -2.0499999999999990E-002     5369925.9307952877     
  -1.9999999999999990E-002     5423722.1961243860     
  -1.9499999999999990E-002     5476647.5515806302     
  -1.8999999999999989E-002     5528656.1617115252     
  -1.8499999999999989E-002     5579685.6831708346     
  -1.7999999999999988E-002     5629693.5143517423     
  -1.7499999999999988E-002     5678623.8038441930     
  -1.6999999999999987E-002     5726422.8998201396     
  -1.6499999999999987E-002     5773031.8859906793     
  -1.5999999999999986E-002     5818413.1633583345     
  -1.5499999999999986E-002     5862499.1738189328     
  -1.4999999999999986E-002     5905233.2674778290     
  -1.4499999999999985E-002     5946563.6576189976     
  -1.3999999999999985E-002     5986420.0164930262     
  -1.3499999999999984E-002     6024753.4038202539     
  -1.2999999999999984E-002     6061511.0501183365     
  -1.2499999999999983E-002     6096625.1414071470     
  -1.1999999999999983E-002     6130036.8710708581     
  -1.1499999999999982E-002     6161702.5011148471     
  -1.0999999999999982E-002     6191554.8566291332     
  -1.0499999999999982E-002     6219535.5075187050     
  -9.9999999999999811E-003     6245590.6830708608     
  -9.4999999999999807E-003     6269639.1947178189     
  -8.9999999999999802E-003     6291642.2821652107     
  -8.4999999999999798E-003     6311540.3569787759     
  -7.9999999999999793E-003     6329259.2707272395     
  -7.4999999999999789E-003     6344748.9223554041     
  -6.9999999999999785E-003     6357946.1450290307     
  -6.4999999999999780E-003     6368787.7609173637     
  -5.9999999999999776E-003     6377230.2401375175     
  -5.4999999999999771E-003     6383204.3264438156     
  -4.9999999999999767E-003     6386650.5634956863     
  -4.4999999999999762E-003     6387504.3980864920     
  -3.9999999999999758E-003     6385708.0980973747     
  -3.4999999999999754E-003     6381213.2821578439     
  -2.9999999999999749E-003     6373947.0787975211     
  -2.4999999999999745E-003     6363866.7461582366     
  -1.9999999999999740E-003     6350915.2176272012     
  -1.4999999999999736E-003     6335033.2915399671     
  -9.9999999999997313E-004     6316171.9417207055     
  -4.9999999999997269E-004     6294268.8751684073     
   0.0000000000000000          6269291.2678647749     
   5.0000000000000044E-004     6241176.1627544537     
   1.0000000000000009E-003     6209866.3299523611     
   1.5000000000000013E-003     6175322.4565974213     
   2.0000000000000018E-003     6137483.4490739629     
   2.5000000000000022E-003     6096304.8371573538     
   3.0000000000000027E-003     6051730.8170621134     
   3.5000000000000031E-003     6003726.2861609906     
   4.0000000000000036E-003     5952242.6301865764     
   4.5000000000000040E-003     5897222.0518780239     
   5.0000000000000044E-003     5838627.0063741766     
   5.5000000000000049E-003     5776446.4019542336     
   6.0000000000000053E-003     5710636.1305207554     
   6.5000000000000058E-003     5641146.0705796275     
   7.0000000000000062E-003     5567939.2858611178     
   7.5000000000000067E-003     5490994.8922681343     
   8.0000000000000071E-003     5410281.1566615682     
   8.5000000000000075E-003     5325740.5946711209     
   9.0000000000000080E-003     5237374.5802303832     
   9.5000000000000084E-003     5145129.9344391022     
   1.0000000000000009E-002     5048987.9527220279     
   1.0500000000000009E-002     4948939.2814577222     
   1.1000000000000010E-002     4844944.8027038276     
   1.1500000000000010E-002     4736986.9070605002     
   1.2000000000000011E-002     4625067.1120702997     
   1.2500000000000011E-002     4509165.8723792043     
   1.3000000000000012E-002     4389264.9446750544     
   1.3500000000000012E-002     4265366.3036890160     
   1.4000000000000012E-002     4137480.1377381189     
   1.4500000000000013E-002     4005598.6180575965     
   1.5000000000000013E-002     3869687.4547599219     
   1.5500000000000014E-002     3729781.0520262346     
   1.6000000000000014E-002     3585870.6791508785     
   1.6500000000000015E-002     3437941.6477084756     
   1.7000000000000015E-002     3286004.6156285373     
   1.7500000000000016E-002     3130066.1095081251     
   1.8000000000000016E-002     2970149.0562084396     
   1.8500000000000016E-002     2806261.1128022969     
   1.9000000000000017E-002     2638450.1573720439     
   1.9500000000000017E-002     2466717.7294433396     
   2.0000000000000018E-002     2291112.6415433390     
   2.0500000000000018E-002     2111629.3875195188     
   2.1000000000000019E-002     1928340.3630671916     
   2.1500000000000019E-002     1741263.5433554668     
   2.2000000000000020E-002     1550424.8187081895     
   2.2500000000000020E-002     1355887.1407286220     
   2.3000000000000020E-002     1157657.5670600682     
   2.3500000000000021E-002     955792.14538247231     
   2.4000000000000021E-002     750337.79118651059     
   2.4500000000000022E-002     541334.85378643591     
   2.5000000000000022E-002     328836.65712431027     
   2.5500000000000023E-002     112901.92266232148     
   2.6000000000000023E-002    -106385.56165286526     
   2.6500000000000024E-002    -328977.52171956841     
   2.7000000000000024E-002    -554797.15049027232     
   2.7500000000000024E-002    -783777.70282748714     
   2.8000000000000025E-002    -1015842.5736043598     
   2.8500000000000025E-002    -1250922.2021013517     
   2.9000000000000026E-002    -1488927.1282885079     
   2.9500000000000026E-002    -1729782.6107643645     
   3.0000000000000027E-002    -1973407.3739220428     
   3.0500000000000027E-002    -2219738.6794832041     
   3.1000000000000028E-002    -2468669.3434527121     
   3.1500000000000028E-002    -2720100.7552213366     
   3.2000000000000028E-002    -2973953.9731128532     