 -0.23999999999999999          0.0000000000000000     
 -0.23949999999999999          0.0000000000000000     
 -0.23899999999999999          0.0000000000000000     
 -0.23849999999999999         -7.0883803589620619E-018
 -0.23799999999999999         -5.5462231037451177E-017
 -0.23749999999999999         -2.2457426760385348E-016
 -0.23699999999999999         -6.1991279032833578E-016
 -0.23649999999999999         -1.2760458831894112E-015
 -0.23599999999999999         -1.9646992353866407E-015
 -0.23549999999999999         -1.9438142492206109E-015
 -0.23499999999999999          2.4521888105899752E-016
 -0.23449999999999999          6.7610875329524926E-015
 -0.23399999999999999          2.0032594674911113E-014
 -0.23349999999999999          4.1769903758091512E-014
 -0.23299999999999998          7.1410253295111445E-014
 -0.23249999999999998          1.0421245592059617E-013
 -0.23199999999999998          1.2947947803294942E-013
 -0.23149999999999998          1.2962868488292868E-013
 -0.23099999999999998          8.0956292302961893E-014
 -0.23049999999999998         -4.3133725240316182E-014
 -0.22999999999999998         -2.6601049608402286E-013
 -0.22949999999999998         -5.9900837803953480E-013
 -0.22899999999999998         -1.0309833137544911E-012
 -0.22849999999999998         -1.5182231772233571E-012
 -0.22799999999999998         -1.9775072793672634E-012
 -0.22749999999999998         -2.2855331929203220E-012
 -0.22699999999999998         -2.2877112173171938E-012
 -0.22649999999999998         -1.8182955546004707E-012
 -0.22599999999999998         -7.3192921502806170E-013
 -0.22549999999999998          1.0559226093473725E-012
 -0.22499999999999998          3.5251260768763248E-012
 -0.22449999999999998          6.5118288444283484E-012
 -0.22399999999999998          9.6842494009306264E-012
 -0.22349999999999998          1.2543581880312435E-011
 -0.22299999999999998          1.4458397206689876E-011
 -0.22249999999999998          1.4736628912768335E-011
 -0.22199999999999998          1.2732842220789855E-011
 -0.22150000000000000          7.9806568413753826E-012
 -0.22100000000000000          3.3227844300752501E-013
 -0.22050000000000000         -9.9193439357617069E-012
 -0.22000000000000000         -2.1963441346213848E-011
 -0.21950000000000000         -3.4465707591271540E-011
 -0.21900000000000000         -4.5653170693281798E-011
 -0.21850000000000000         -5.3496466065105213E-011
 -0.21800000000000000         -5.5979694087669831E-011
 -0.21750000000000000         -5.1429563669947637E-011
 -0.21700000000000000         -3.8858482978689978E-011
 -0.21650000000000000         -1.8264308098247139E-011
 -0.21600000000000000          9.1739762423116134E-012
 -0.21550000000000000          4.1058094929894030E-011
 -0.21500000000000000          7.3924564161922660E-011
 -0.21450000000000000          1.0359721410673743E-010
 -0.21400000000000000          1.2570974507864846E-010
 -0.21350000000000000          1.3633498182005966E-010
 -0.21299999999999999          1.3262874965216962E-010
 -0.21249999999999999          1.1338051777008439E-010
 -0.21199999999999999          7.9364826401836514E-011
 -0.21149999999999999          3.3409624061550852E-011
 -0.21099999999999999         -1.9861799477440017E-011
 -0.21049999999999999         -7.4604484899076240E-011
 -0.20999999999999999         -1.2457155569538206E-010
 -0.20949999999999999         -1.6405764795225874E-010
 -0.20899999999999999         -1.8880828206401077E-010
 -0.20849999999999999         -1.9672723618304246E-010
 -0.20799999999999999         -1.8823589213678175E-010
 -0.20749999999999999         -1.6618991053547908E-010
 -0.20699999999999999         -1.3533441185917490E-010
 -0.20649999999999999         -1.0136592907065422E-010
 -0.20599999999999999         -6.9752232862232598E-011
 -0.20549999999999999         -4.4523137015645417E-011
 -0.20499999999999999         -2.7271780357086041E-011
 -0.20449999999999999         -1.6588082490094789E-011
 -0.20399999999999999         -8.0830029591195268E-012
 -0.20349999999999999          4.9382259659745796E-012
 -0.20299999999999999          3.0217179733835407E-011
 -0.20249999999999999          7.4881868844740852E-011
 -0.20199999999999999          1.4366542739115017E-010
 -0.20149999999999998          2.3733471665799023E-010
 -0.20099999999999998          3.5165069299341448E-010
 -0.20049999999999998          4.7711022276057195E-010
 -0.19999999999999998          5.9959245187026038E-010
 -0.19949999999999998          7.0187347862145716E-010
 -0.19899999999999998          7.6580777811275972E-010
 -0.19849999999999998          7.7483777504348426E-010
 -0.19799999999999998          7.1641224168194249E-010
 -0.19749999999999998          5.8388982004796920E-010
 -0.19699999999999998          3.7758219515960875E-010
 -0.19649999999999998          1.0474406184006522E-010
 -0.19600000000000001         -2.2148333117473998E-010
 -0.19550000000000001         -5.8395727807229632E-010
 -0.19500000000000001         -9.6384907878778395E-010
 -0.19450000000000001         -1.3428799588176237E-009
 -0.19400000000000001         -1.7049535718136288E-009
 -0.19350000000000001         -2.0367543667366586E-009
 -0.19300000000000000         -2.3270711991978775E-009
 -0.19250000000000000         -2.5648629602985428E-009
 -0.19200000000000000         -2.7363625756583285E-009
 -0.19150000000000000         -2.8217593108967304E-009
 -0.19100000000000000         -2.7921636737016250E-009
 -0.19050000000000000         -2.6075976429837602E-009
 -0.19000000000000000         -2.2166520879155324E-009
 -0.18950000000000000         -1.5582263480769893E-009
 -0.18900000000000000         -5.6542222335563720E-010
 -0.18850000000000000          8.2870255751426236E-010
 -0.18800000000000000          2.6841798277525486E-009
 -0.18750000000000000          5.0469042928832744E-009
 -0.18700000000000000          7.9421981070323301E-009
 -0.18650000000000000          1.1370185768378104E-008
 -0.18600000000000000          1.5303805746051026E-008
 -0.18550000000000000          1.9689922525709762E-008
 -0.18500000000000000          2.4453548978285077E-008
 -0.18450000000000000          2.9504766001056068E-008
 -0.18400000000000000          3.4747472225176488E-008
 -0.18350000000000000          4.0088902651714850E-008
 -0.18300000000000000          4.5448618815546135E-008
 -0.18250000000000000          5.0765910966603861E-008
 -0.18200000000000000          5.6004687375886733E-008
 -0.18149999999999999          6.1155351728457847E-008
 -0.18099999999999999          6.6233619362173888E-008
 -0.18049999999999999          7.1276692546954206E-008
 -0.17999999999999999          7.6337492263134030E-008
 -0.17949999999999999          8.1477945508266669E-008
 -0.17899999999999999          8.6762381905645839E-008
 -0.17849999999999999          9.2251957688536010E-008
 -0.17799999999999999          9.8000866282385282E-008
 -0.17749999999999999          1.0405463983282631E-007
 -0.17699999999999999          1.1045060031184221E-007
 -0.17649999999999999          1.1722021483222323E-007
 -0.17599999999999999          1.2439274159063399E-007
 -0.17549999999999999          1.3199945384118293E-007
 -0.17499999999999999          1.4007775882012802E-007
 -0.17449999999999999          1.4867457142103740E-007
 -0.17399999999999999          1.5784840507937735E-007
 -0.17349999999999999          1.6767001907891341E-007
 -0.17299999999999999          1.7822150558120844E-007
 -0.17249999999999999          1.8959402238380013E-007
 -0.17199999999999999          2.0188450266085395E-007
 -0.17149999999999999          2.1519172836481037E-007
 -0.17099999999999999          2.2961229435862302E-007
 -0.17049999999999998          2.4523683439957858E-007
 -0.16999999999999998          2.6214716512559915E-007
 -0.16949999999999998          2.8041440907637348E-007
 -0.16899999999999998          3.0009838009145001E-007
 -0.16849999999999998          3.2124866711564782E-007
 -0.16799999999999998          3.4390708613408127E-007
 -0.16749999999999998          3.6811145045108882E-007
 -0.16699999999999998          3.9390045644923738E-007
 -0.16649999999999998          4.2131923203388300E-007
 -0.16599999999999998          4.5042515544603108E-007
 -0.16549999999999998          4.8129314450975529E-007
 -0.16499999999999998          5.1401995119273422E-007
 -0.16449999999999998          5.4872697111731686E-007
 -0.16399999999999998          5.8556127849051793E-007
 -0.16349999999999998          6.2469475205942820E-007
 -0.16299999999999998          6.6632138748477925E-007
 -0.16249999999999998          7.1065333127865228E-007
 -0.16199999999999998          7.5791592879190492E-007
 -0.16149999999999998          8.0834309026603228E-007
 -0.16099999999999998          8.6217323275882460E-007
 -0.16049999999999998          9.1964653874067790E-007
 -0.15999999999999998          9.8100428224278641E-007
 -0.15949999999999998          1.0464894015735695E-006
 -0.15899999999999997          1.1163493042161886E-006
 -0.15849999999999997          1.1908391159397917E-006
 -0.15799999999999997          1.2702255173082315E-006
 -0.15749999999999997          1.3547901190546294E-006
 -0.15699999999999997          1.4448317479977248E-006
 -0.15649999999999997          1.5406670902447417E-006
 -0.15599999999999997          1.6426297395870378E-006
 -0.15549999999999997          1.7510678953123321E-006
 -0.15499999999999997          1.8663418625019139E-006
 -0.15449999999999997          1.9888226971691334E-006
 -0.15399999999999997          2.1188901247912346E-006
 -0.15349999999999997          2.2569344731296244E-006
 -0.15299999999999997          2.4033604010114235E-006
 -0.15249999999999997          2.5585926680977370E-006
 -0.15200000000000000          2.7230852505644080E-006
 -0.15150000000000000          2.8973302062541792E-006
 -0.15100000000000000          3.0818665615430275E-006
 -0.15049999999999999          3.2772895733144772E-006
 -0.14999999999999999          3.4842564517461987E-006
 -0.14949999999999999          3.7034897961101694E-006
 -0.14899999999999999          3.9357779043646172E-006
 -0.14849999999999999          4.1819711493729370E-006
 -0.14799999999999999          4.4429762288645557E-006
 -0.14749999999999999          4.7197502904670548E-006
 -0.14699999999999999          5.0132945451461563E-006
 -0.14649999999999999          5.3246479977142395E-006
 -0.14599999999999999          5.6548845759786249E-006
 -0.14549999999999999          6.0051123968964971E-006
 -0.14499999999999999          6.3764774887123076E-006
 -0.14449999999999999          6.7701685887215111E-006
 -0.14399999999999999          7.1874237762168420E-006
 -0.14349999999999999          7.6295409524938192E-006
 -0.14299999999999999          8.0978860102959879E-006
 -0.14249999999999999          8.5939015576164702E-006
 -0.14199999999999999          9.1191159977899056E-006
 -0.14149999999999999          9.6751521099823769E-006
 -0.14099999999999999          1.0263730770992538E-005
 -0.14049999999999999          1.0886677667283859E-005
 -0.13999999999999999          1.1545923271726313E-005
 -0.13949999999999999          1.2243505992176013E-005
 -0.13899999999999998          1.2981576355431868E-005
 -0.13849999999999998          1.3762392483764428E-005
 -0.13799999999999998          1.4588330139248516E-005
 -0.13749999999999998          1.5461881921252647E-005
 -0.13699999999999998          1.6385653228133792E-005
 -0.13649999999999998          1.7362379451333829E-005
 -0.13599999999999998          1.8394925648815925E-005
 -0.13550000000000001          1.9486287080310495E-005
 -0.13500000000000001          2.0639601381623871E-005
 -0.13450000000000001          2.1858162467003436E-005
 -0.13400000000000001          2.3145435624280202E-005
 -0.13350000000000001          2.4505077770561438E-005
 -0.13300000000000001          2.5940947691310944E-005
 -0.13250000000000001          2.7457117855985989E-005
 -0.13200000000000001          2.9057889791330815E-005
 -0.13150000000000001          3.0747813040636900E-005
 -0.13100000000000001          3.2531694493185180E-005
 -0.13050000000000000          3.4414589203729351E-005
 -0.13000000000000000          3.6401807851168189E-005
 -0.12950000000000000          3.8498915718919376E-005
 -0.12900000000000000          4.0711731605763795E-005
 -0.12850000000000000          4.3046328425814486E-005
 -0.12800000000000000          4.5509041689372888E-005
 -0.12750000000000000          4.8106478256225641E-005
 -0.12700000000000000          5.0845515964504729E-005
 -0.12650000000000000          5.3733352348856887E-005
 -0.12600000000000000          5.6777521345931976E-005
 -0.12550000000000000          5.9985930592176251E-005
 -0.12499999999999999          6.3366882957822487E-005
 -0.12449999999999999          6.6929116695756230E-005
 -0.12399999999999999          7.0681853630204700E-005
 -0.12349999999999998          7.4634787559786379E-005
 -0.12299999999999998          7.8798127092308100E-005
 -0.12249999999999998          8.3182592379315052E-005
 -0.12199999999999998          8.7799416244040650E-005
 -0.12149999999999998          9.2660363484985082E-005
 -0.12099999999999998          9.7777738084294674E-005
 -0.12049999999999998          1.0316438671534691E-004
 -0.12000000000000000          1.0883369870839911E-004
 -0.11950000000000000          1.1479964968446214E-004
 -0.11899999999999999          1.2107681377564604E-004
 -0.11849999999999999          1.2768039098020302E-004
 -0.11799999999999999          1.3462625817131161E-004
 -0.11749999999999999          1.4193096978591142E-004
 -0.11699999999999999          1.4961187421771158E-004
 -0.11649999999999999          1.5768712213378640E-004
 -0.11599999999999999          1.6617570042922047E-004
 -0.11549999999999999          1.7509752408558800E-004
 -0.11499999999999999          1.8447341163814362E-004
 -0.11449999999999999          1.9432512417835048E-004
 -0.11399999999999999          2.0467541383900942E-004
 -0.11349999999999999          2.1554804056132858E-004
 -0.11299999999999999          2.2696783932362483E-004
 -0.11249999999999999          2.3896072248241848E-004
 -0.11199999999999999          2.5155377388540103E-004
 -0.11149999999999999          2.6477521407207406E-004
 -0.11099999999999999          2.7865444569248116E-004
 -0.11049999999999999          2.9322214796033820E-004
 -0.10999999999999999          3.0851030115078558E-004
 -0.10949999999999999          3.2455220938542456E-004
 -0.10899999999999999          3.4138258522110058E-004
 -0.10849999999999999          3.5903759014056335E-004
 -0.10799999999999998          3.7755490866387157E-004
 -0.10749999999999998          3.9697379977697756E-004
 -0.10699999999999998          4.1733520923159046E-004
 -0.10649999999999998          4.3868181685636262E-004
 -0.10599999999999998          4.6105797981835564E-004
 -0.10549999999999998          4.8450995808141807E-004
 -0.10499999999999998          5.0908600512494079E-004
 -0.10449999999999998          5.3483633803023446E-004
 -0.10399999999999998          5.6181324377565622E-004
 -0.10349999999999998          5.9007116803310106E-004
 -0.10299999999999998          6.1966676939937380E-004
 -0.10249999999999998          6.5065898176411112E-004
 -0.10199999999999998          6.8310906089637030E-004
 -0.10149999999999998          7.1708081639104422E-004
 -0.10099999999999998          7.5264041882723608E-004
 -0.10049999999999998          7.8985671462337243E-004
  -9.9999999999999978E-002     8.2880143336089610E-004
  -9.9499999999999977E-002     8.6954888960441307E-004
  -9.8999999999999977E-002     9.1217623764452103E-004
  -9.8499999999999976E-002     9.5676387007987947E-004
  -9.7999999999999976E-002     1.0033953190084720E-003
  -9.7499999999999976E-002     1.0521571593609096E-003
  -9.6999999999999975E-002     1.1031393980285207E-003
  -9.6499999999999975E-002     1.1564353083514552E-003
  -9.5999999999999974E-002     1.2121416432416252E-003
  -9.5500000000000002E-002     1.2703587740122086E-003
  -9.5000000000000001E-002     1.3311908811647205E-003
  -9.4500000000000001E-002     1.3947460833158079E-003
  -9.4000000000000000E-002     1.4611369146044883E-003
  -9.3500000000000000E-002     1.5304801285852499E-003
  -9.2999999999999999E-002     1.6028961608323526E-003
  -9.2499999999999999E-002     1.6785097713887121E-003
  -9.1999999999999998E-002     1.7574508265519337E-003
  -9.1499999999999998E-002     1.8398540161544104E-003
  -9.0999999999999998E-002     1.9258583930221993E-003
  -9.0499999999999997E-002     2.0156082280243888E-003
  -8.9999999999999997E-002     2.1092527479876378E-003
  -8.9499999999999996E-002     2.2069467272334675E-003
  -8.8999999999999996E-002     2.3088501429867950E-003
  -8.8499999999999995E-002     2.4151284446939604E-003
  -8.7999999999999995E-002     2.5259534797503042E-003
  -8.7499999999999994E-002     2.6415027011379832E-003
  -8.6999999999999994E-002     2.7619594833305861E-003
  -8.6499999999999994E-002     2.8875136834375583E-003
  -8.5999999999999993E-002     3.0183615219949124E-003
  -8.5499999999999993E-002     3.1547059575431700E-003
  -8.4999999999999992E-002     3.2967576767502526E-003
  -8.4499999999999992E-002     3.4447342665249788E-003
  -8.3999999999999991E-002     3.5988596246944895E-003
  -8.3499999999999991E-002     3.7593648987999783E-003
  -8.2999999999999990E-002     3.9264893444896452E-003
  -8.2499999999999990E-002     4.1004797233847885E-003
  -8.1999999999999990E-002     4.2815902936847380E-003
  -8.1499999999999989E-002     4.4700840761432645E-003
  -8.0999999999999989E-002     4.6662327077323911E-003
  -8.0499999999999988E-002     4.8703164984079273E-003
  -7.9999999999999988E-002     5.0826249752699559E-003
  -7.9499999999999987E-002     5.3034566866351374E-003
  -7.8999999999999987E-002     5.5331187138148528E-003
  -7.8499999999999986E-002     5.7719274078957619E-003
  -7.7999999999999986E-002     6.0202091891871125E-003
  -7.7499999999999986E-002     6.2783019200805101E-003
  -7.6999999999999985E-002     6.5465537047980776E-003
  -7.6499999999999985E-002     6.8253219885269665E-003
  -7.5999999999999984E-002     7.1149758522884732E-003
  -7.5499999999999984E-002     7.4158950244096848E-003
  -7.4999999999999983E-002     7.7284704391533381E-003
  -7.4499999999999983E-002     8.0531028400161846E-003
  -7.3999999999999982E-002     8.3902060830793462E-003
  -7.3499999999999982E-002     8.7402049354802919E-003
  -7.2999999999999982E-002     9.1035365942955214E-003
  -7.2499999999999981E-002     9.4806517415879470E-003
  -7.1999999999999981E-002     9.8720118377746482E-003
  -7.1499999999999980E-002     1.0278092230009087E-002
  -7.0999999999999980E-002     1.0699383044269602E-002
  -7.0499999999999979E-002     1.1136386256028190E-002
  -6.9999999999999979E-002     1.1589617720951399E-002
  -6.9499999999999978E-002     1.2059609190954054E-002
  -6.8999999999999978E-002     1.2546905021443389E-002
  -6.8499999999999978E-002     1.3052065219114502E-002
  -6.7999999999999977E-002     1.3575665004510962E-002
  -6.7499999999999977E-002     1.4118292560623044E-002
  -6.6999999999999976E-002     1.4680552545018041E-002
  -6.6499999999999976E-002     1.5263061499684351E-002
  -6.5999999999999975E-002     1.5866451832712021E-002
  -6.5499999999999975E-002     1.6491375802135100E-002
  -6.4999999999999974E-002     1.7138500231381623E-002
  -6.4499999999999974E-002     1.7808510674910100E-002
  -6.4000000000000001E-002     1.8502105609466017E-002
  -6.3500000000000001E-002     1.9220002400359964E-002
  -6.3000000000000000E-002     1.9962932631263156E-002
  -6.2500000000000000E-002     2.0731652003737361E-002
  -6.2000000000000000E-002     2.1526934082528953E-002
  -6.1499999999999999E-002     2.2349561262959203E-002
  -6.0999999999999999E-002     2.3200335633249830E-002
  -6.0499999999999998E-002     2.4080081381387904E-002
  -5.9999999999999998E-002     2.4989639699910866E-002
  -5.9499999999999997E-002     2.5929870685477186E-002
  -5.8999999999999997E-002     2.6901656226384036E-002
  -5.8499999999999996E-002     2.7905890683674647E-002
  -5.7999999999999996E-002     2.8943487623844105E-002
  -5.7499999999999996E-002     3.0015383014156301E-002
  -5.6999999999999995E-002     3.1122533302392244E-002
  -5.6499999999999995E-002     3.2265912118500675E-002
  -5.5999999999999994E-002     3.3446516132131579E-002
  -5.5499999999999994E-002     3.4665367516633488E-002
  -5.4999999999999993E-002     3.5923499556608986E-002
  -5.4499999999999993E-002     3.7221967164567195E-002
  -5.3999999999999992E-002     3.8561844507281721E-002
  -5.3499999999999992E-002     3.9944221303687466E-002
  -5.2999999999999992E-002     4.1370205303124352E-002
  -5.2499999999999991E-002     4.2840922651544676E-002
  -5.1999999999999991E-002     4.4357528362807264E-002
  -5.1499999999999990E-002     4.5921198168690697E-002
  -5.0999999999999990E-002     4.7533123530932822E-002
  -5.0499999999999989E-002     4.9194514135391609E-002
  -4.9999999999999989E-002     5.0906610768680263E-002
  -4.9499999999999988E-002     5.2670671988830388E-002
  -4.8999999999999988E-002     5.4487961353980888E-002
  -4.8499999999999988E-002     5.6359773919035600E-002
  -4.7999999999999987E-002     5.8287423639531176E-002
  -4.7499999999999987E-002     6.0272239858891602E-002
  -4.6999999999999986E-002     6.2315567967420660E-002
  -4.6499999999999986E-002     6.4418780506060230E-002
  -4.5999999999999985E-002     6.6583269603734979E-002
  -4.5499999999999985E-002     6.8810443759424023E-002
  -4.4999999999999984E-002     7.1101733711321835E-002
  -4.4499999999999984E-002     7.3458577399760527E-002
  -4.3999999999999984E-002     7.5882445088671008E-002
  -4.3499999999999983E-002     7.8374806017371429E-002
  -4.2999999999999983E-002     8.0937135920054276E-002
  -4.2499999999999982E-002     8.3570941334592364E-002
  -4.1999999999999982E-002     8.6277743017185327E-002
  -4.1499999999999981E-002     8.9059071823678587E-002
  -4.0999999999999981E-002     9.1916456894478027E-002
  -4.0499999999999980E-002     9.4851457475708431E-002
  -3.9999999999999980E-002     9.7865659498493934E-002
  -3.9499999999999980E-002    0.10096066615808275     
  -3.8999999999999979E-002    0.10413809441898320     
  -3.8499999999999979E-002    0.10739956022705119     
  -3.7999999999999978E-002    0.11074670708075085     
  -3.7499999999999978E-002    0.11418118160372616     
  -3.6999999999999977E-002    0.11770461648857095     
  -3.6499999999999977E-002    0.12131864406952880     
  -3.5999999999999976E-002    0.12502491774512459     
  -3.5499999999999976E-002    0.12882510633026334     
  -3.4999999999999976E-002    0.13272084707964249     
  -3.4499999999999975E-002    0.13671378605608114     
  -3.3999999999999975E-002    0.14080561405116868     
  -3.3499999999999974E-002    0.14499801084011113     
  -3.2999999999999974E-002    0.14929266657456064     
  -3.2499999999999973E-002    0.15369128626894873     
  -3.1999999999999973E-002    0.15819555342422353     
  -3.1500000000000000E-002    0.16280716871008977     
  -3.1000000000000000E-002    0.16752779152455138     
  -3.0499999999999999E-002    0.17235904892792531     
  -2.9999999999999999E-002    0.17730260196709691     
  -2.9499999999999998E-002    0.18236008282955662     
  -2.8999999999999998E-002    0.18753305791760061     
  -2.8499999999999998E-002    0.19282312927854725     
  -2.7999999999999997E-002    0.19823193328648148     
  -2.7499999999999997E-002    0.20376105254279672     
  -2.6999999999999996E-002    0.20941207012427879     
  -2.6499999999999996E-002    0.21518657488791912     
  -2.5999999999999995E-002    0.22108611024812802     
  -2.5499999999999995E-002    0.22711217930508276     
  -2.4999999999999994E-002    0.23326630229601811     
  -2.4499999999999994E-002    0.23954998267873895     
  -2.3999999999999994E-002    0.24596461443158729     
  -2.3499999999999993E-002    0.25251156887266391     
  -2.2999999999999993E-002    0.25919220931155362     
  -2.2499999999999992E-002    0.26600780954972769     
  -2.1999999999999992E-002    0.27295966083042128     
  -2.1499999999999991E-002    0.28004897825645148     
  -2.0999999999999991E-002    0.28727692254970588     
  -2.0499999999999990E-002    0.29464473261765201     
  -1.9999999999999990E-002    0.30215356881931166     
  -1.9499999999999990E-002    0.30980451510290030     
  -1.8999999999999989E-002    0.31759859197344964     
  -1.8499999999999989E-002    0.32553679340000341     
  -1.7999999999999988E-002    0.33362004877683732     
  -1.7499999999999988E-002    0.34184922267745343     
  -1.6999999999999987E-002    0.35022513468865757     
  -1.6499999999999987E-002    0.35874854349413299     
  -1.5999999999999986E-002    0.36742007931709209     
  -1.5499999999999986E-002    0.37624022899292381     
  -1.4999999999999986E-002    0.38520944469619373     
  -1.4499999999999985E-002    0.39432820546076508     
  -1.3999999999999985E-002    0.40359693210157388     
  -1.3499999999999984E-002    0.41301586218973341     
  -1.2999999999999984E-002    0.42258519829650970     
  -1.2499999999999983E-002    0.43230514956304494     
  -1.1999999999999983E-002    0.44217573547030931     
  -1.1499999999999982E-002    0.45219693522278875     
  -1.0999999999999982E-002    0.46236867999699122     
  -1.0499999999999982E-002    0.47269059925721790     
  -9.9999999999999811E-003    0.48316217323869171     
  -9.4999999999999807E-003    0.49378286595947540     
  -8.9999999999999802E-003    0.50455206529721375     
  -8.4999999999999798E-003    0.51546904600752175     
  -7.9999999999999793E-003    0.52653313649597488     
  -7.4999999999999789E-003    0.53774350678379612     
  -6.9999999999999785E-003    0.54909915006473553     
  -6.4999999999999780E-003    0.56059899961036741     
  -5.9999999999999776E-003    0.57224186777683972     
  -5.4999999999999771E-003    0.58402627936545903     
  -4.9999999999999767E-003    0.59595070981441034     
  -4.4999999999999762E-003    0.60801359245715814     
  -3.9999999999999758E-003    0.62021312909021620     
  -3.4999999999999754E-003    0.63254723454371753     
  -2.9999999999999749E-003    0.64501390466351038     
  -2.4999999999999745E-003    0.65761088017600544     
  -1.9999999999999740E-003    0.67033578464872345     
  -1.4999999999999736E-003    0.68318619675785708     
  -9.9999999999997313E-004    0.69615925362730846     
  -4.9999999999997269E-004    0.70925212353000444     
   0.0000000000000000         0.72246200495517421     
   5.0000000000000044E-004    0.73578575472088670     
   1.0000000000000009E-003    0.74922005686037718     
   1.5000000000000013E-003    0.76276126070910033     
   2.0000000000000018E-003    0.77640589894278345     
   2.5000000000000022E-003    0.79015018514712321     
   3.0000000000000027E-003    0.80398976714414383     
   3.5000000000000031E-003    0.81792049035935122     
   4.0000000000000036E-003    0.83193819745259590     
   4.5000000000000040E-003    0.84603856611902395     
   5.0000000000000044E-003    0.86021693899548357     
   5.5000000000000049E-003    0.87446857561188618     
   6.0000000000000053E-003    0.88878855938700785     
   6.5000000000000058E-003    0.90317182342899371     
   7.0000000000000062E-003    0.91761296836261275     
   7.5000000000000067E-003    0.93210643836814255     
   8.0000000000000071E-003    0.94664659978508370     
   8.5000000000000075E-003    0.96122741620471563     
   9.0000000000000080E-003    0.97584277391939978     
   9.5000000000000084E-003    0.99048608891122947     
   1.0000000000000009E-002     1.0051504607844597     
   1.0500000000000009E-002     1.0198291588879798     
   1.1000000000000010E-002     1.0345155444001208     
   1.1500000000000010E-002     1.0492027164829762     
   1.2000000000000011E-002     1.0638835460215181     
   1.2500000000000011E-002     1.0785506596206584     
   1.3000000000000012E-002     1.0931964583832370     
   1.3500000000000012E-002     1.1078132085322010     
   1.4000000000000012E-002     1.1223927604234749     
   1.4500000000000013E-002     1.1369269606727017     
   1.5000000000000013E-002     1.1514079060883669     
   1.5500000000000014E-002     1.1658268864566323     
   1.6000000000000014E-002     1.1801746886073849     
   1.6500000000000015E-002     1.1944428096367969     
   1.7000000000000015E-002     1.2086223334977668     
   1.7500000000000016E-002     1.2227036597865062     
   1.8000000000000016E-002     1.2366772935033559     
   1.8500000000000016E-002     1.2505337115037045     
   1.9000000000000017E-002     1.2642630886865369     
   1.9500000000000017E-002     1.2778554373609265     
   2.0000000000000018E-002     1.2913005658565688     
   2.0500000000000018E-002     1.3045880598736692     
   2.1000000000000019E-002     1.3177082821474770     
   2.1500000000000019E-002     1.3306509743805279     
   2.2000000000000020E-002     1.3434053968605655     
   2.2500000000000020E-002     1.3559607110746741     
   2.3000000000000020E-002     1.3683054183534611     
   2.3500000000000021E-002     1.3804283399130173     
   2.4000000000000021E-002     1.3923178451416569     
   2.4500000000000022E-002     1.4039626979512019     
   2.5000000000000022E-002     1.4153521214173119     
   2.5500000000000023E-002     1.4264745745548986     
   2.6000000000000023E-002     1.4373186991866822     
   2.6500000000000024E-002     1.4478730546497878     
   2.7000000000000024E-002     1.4581255658552794     
   2.7500000000000024E-002     1.4680647134361318     
   2.8000000000000025E-002     1.4776787173326689     
   2.8500000000000025E-002     1.4869549996181646     
   2.9000000000000026E-002     1.4958802704971519     
   2.9500000000000026E-002     1.5044423740553490     
   3.0000000000000027E-002     1.5126293047656822     
   3.0500000000000027E-002     1.5204282398860005     
   3.1000000000000028E-002     1.5278276103556190     
   3.1500000000000028E-002     1.5348151519878754     
   3.2000000000000028E-002     1.5413780627237947     