 -0.23999999999999999          0.0000000000000000     
 -0.23949999999999999         -1.1182640170566933E-013
 -0.23899999999999999         -2.9642867310644209E-013
 -0.23849999999999999         -4.8012822755753217E-013
 -0.23799999999999999         -5.7817618858755185E-013
 -0.23749999999999999         -5.2305639162435094E-013
 -0.23699999999999999         -2.8920000211211807E-013
 -0.23649999999999999          9.3593665991306719E-014
 -0.23599999999999999          5.4299973725573540E-013
 -0.23549999999999999          9.4404270618386597E-013
 -0.23499999999999999          1.1821145033497447E-012
 -0.23449999999999999          1.1812967313445875E-012
 -0.23399999999999999          9.3793215554859775E-013
 -0.23349999999999999          5.3956508340488353E-013
 -0.23299999999999998          1.6203411142437664E-013
 -0.23249999999999998          4.2169448857260583E-014
 -0.23199999999999998          4.2924183406404415E-013
 -0.23149999999999998          1.5237588050302813E-012
 -0.23099999999999998          3.4161218826404477E-012
 -0.23049999999999998          6.0390764381721995E-012
 -0.22999999999999998          9.1462984685375370E-012
 -0.22949999999999998          1.2325045489343979E-011
 -0.22899999999999998          1.5044378696392906E-011
 -0.22849999999999998          1.6733246149609466E-011
 -0.22799999999999998          1.6876238180696138E-011
 -0.22749999999999998          1.5110480178586070E-011
 -0.22699999999999998          1.1305834286854388E-011
 -0.22649999999999998          5.6128248855780538E-012
 -0.22599999999999998         -1.5319657198363977E-012
 -0.22549999999999998         -9.4457270712037191E-012
 -0.22499999999999998         -1.7278953127413913E-011
 -0.22449999999999998         -2.4121750953955908E-011
 -0.22399999999999998         -2.9118964383963846E-011
 -0.22349999999999998         -3.1574456720698887E-011
 -0.22299999999999998         -3.1026745160496752E-011
 -0.22249999999999998         -2.7283541917645612E-011
 -0.22199999999999998         -2.0410019395086659E-011
 -0.22150000000000000         -1.0674134831829447E-011
 -0.22100000000000000          1.5403565499875561E-012
 -0.22050000000000000          1.5837127882816376E-011
 -0.22000000000000000          3.1908439515403160E-011
 -0.21950000000000000          4.9617104829860575E-011
 -0.21900000000000000          6.9046582154385262E-011
 -0.21850000000000000          9.0512206377167967E-011
 -0.21800000000000000          1.1453465814788754E-010
 -0.21750000000000000          1.4178240466907917E-010
 -0.21700000000000000          1.7299511230362628E-010
 -0.21650000000000000          2.0890206005144133E-010
 -0.21600000000000000          2.5014917460334643E-010
 -0.21550000000000000          2.9724481203028754E-010
 -0.21500000000000000          3.5053068495735003E-010
 -0.21450000000000000          4.1017838609807670E-010
 -0.21400000000000000          4.7620805260248097E-010
 -0.21350000000000000          5.4852248016062366E-010
 -0.21299999999999999          6.2694860528762433E-010
 -0.21249999999999999          7.1127896717880251E-010
 -0.21199999999999999          8.0130829373316395E-010
 -0.21149999999999999          8.9686408130890322E-010
 -0.21099999999999999          9.9782982591846785E-010
 -0.21049999999999999          1.1041659574389962E-009
 -0.20999999999999999          1.2159303938272814E-009
 -0.20949999999999999          1.3333018237861324E-009
 -0.20899999999999999          1.4566059515053471E-009
 -0.20849999999999999          1.5863434323945798E-009
 -0.20799999999999999          1.7232141270209316E-009
 -0.20749999999999999          1.8681318805370163E-009
 -0.20699999999999999          2.0222247836439348E-009
 -0.20649999999999999          2.1868139925933167E-009
 -0.20599999999999999          2.3633731935207799E-009
 -0.20549999999999999          2.5534671568077285E-009
 -0.20499999999999999          2.7586789943197655E-009
 -0.20449999999999999          2.9805324016062638E-009
 -0.20399999999999999          3.2204216061879450E-009
 -0.20349999999999999          3.4795604267824887E-009
 -0.20299999999999999          3.7589556038350904E-009
 -0.20249999999999999          4.0594139352307222E-009
 -0.20199999999999999          4.3815791657693710E-009
 -0.20149999999999998          4.7259981763849512E-009
 -0.20099999999999998          5.0932013711322232E-009
 -0.20049999999999998          5.4837961426074596E-009
 -0.19999999999999998          5.8985528781045873E-009
 -0.19949999999999998          6.3384787628186689E-009
 -0.19899999999999998          6.8048761522261513E-009
 -0.19849999999999998          7.2993672992691472E-009
 -0.19799999999999998          7.8239080921309100E-009
 -0.19749999999999998          8.3807718885320135E-009
 -0.19699999999999998          8.9725289840294592E-009
 -0.19649999999999998          9.6020157992429186E-009
 -0.19600000000000001          1.0272301242020726E-008
 -0.19550000000000001          1.0986660149666723E-008
 -0.19500000000000001          1.1748549617407834E-008
 -0.19450000000000001          1.2561589553867256E-008
 -0.19400000000000001          1.3429549624637208E-008
 -0.19350000000000001          1.4356337903881085E-008
 -0.19300000000000000          1.5345985558248842E-008
 -0.19250000000000000          1.6402636143899874E-008
 -0.19200000000000000          1.7530543428410541E-008
 -0.19150000000000000          1.8734064802326761E-008
 -0.19100000000000000          2.0017667880435480E-008
 -0.19050000000000000          2.1385958277204195E-008
 -0.19000000000000000          2.2843708392440061E-008
 -0.18950000000000000          2.4395910296329785E-008
 -0.18900000000000000          2.6047845131465717E-008
 -0.18850000000000000          2.7805148193651793E-008
 -0.18800000000000000          2.9673887723191898E-008
 -0.18750000000000000          3.1660634302205133E-008
 -0.18700000000000000          3.3772520146021300E-008
 -0.18650000000000000          3.6017267342227251E-008
 -0.18600000000000000          3.8403232906430237E-008
 -0.18550000000000000          4.0939399616052077E-008
 -0.18500000000000000          4.3635376653532063E-008
 -0.18450000000000000          4.6501391684551133E-008
 -0.18400000000000000          4.9548272667556587E-008
 -0.18350000000000000          5.2787458200136708E-008
 -0.18300000000000000          5.6230997125359273E-008
 -0.18250000000000000          5.9891569168290587E-008
 -0.18200000000000000          6.3782510575511433E-008
 -0.18149999999999999          6.7917876718508469E-008
 -0.18099999999999999          7.2312475530654199E-008
 -0.18049999999999999          7.6981918678493654E-008
 -0.17999999999999999          8.1942683862003801E-008
 -0.17949999999999999          8.7212146935175329E-008
 -0.17899999999999999          9.2808621273418737E-008
 -0.17849999999999999          9.8751403606716453E-008
 -0.17799999999999999          1.0506084823719204E-007
 -0.17749999999999999          1.1175836351247162E-007
 -0.17699999999999999          1.1886651097934092E-007
 -0.17649999999999999          1.2640907854915094E-007
 -0.17599999999999999          1.3441123683718114E-007
 -0.17549999999999999          1.4289955738694251E-007
 -0.17499999999999999          1.5190217783816418E-007
 -0.17449999999999999          1.6144893203513635E-007
 -0.17399999999999999          1.7157143750559229E-007
 -0.17349999999999999          1.8230322393458728E-007
 -0.17299999999999999          1.9367980344768608E-007
 -0.17249999999999999          2.0573879490620747E-007
 -0.17199999999999999          2.1851986519658551E-007
 -0.17149999999999999          2.3206493621728829E-007
 -0.17099999999999999          2.4641814803571394E-007
 -0.17049999999999998          2.6162602992590748E-007
 -0.16999999999999998          2.7773742183404069E-007
 -0.16949999999999998          2.9480374205795006E-007
 -0.16899999999999998          3.1287904472281271E-007
 -0.16849999999999998          3.3202020791762106E-007
 -0.16799999999999998          3.5228710961480355E-007
 -0.16749999999999998          3.7374281886763047E-007
 -0.16699999999999998          3.9645377955562183E-007
 -0.16649999999999998          4.2049007313093978E-007
 -0.16599999999999998          4.4592553542533423E-007
 -0.16549999999999998          4.7283801721753193E-007
 -0.16499999999999998          5.0130955188490304E-007
 -0.16449999999999998          5.3142653300555581E-007
 -0.16399999999999998          5.6327989167053783E-007
 -0.16349999999999998          5.9696523598654981E-007
 -0.16299999999999998          6.3258314039895985E-007
 -0.16249999999999998          6.7023932173743363E-007
 -0.16199999999999998          7.1004493793223688E-007
 -0.16149999999999998          7.5211685508133296E-007
 -0.16099999999999998          7.9657785354533691E-007
 -0.16049999999999998          8.4355727578835048E-007
 -0.15999999999999998          8.9319085835553515E-007
 -0.15949999999999998          9.4562157391777281E-007
 -0.15899999999999997          1.0009996393396470E-006
 -0.15849999999999997          1.0594831344841448E-006
 -0.15799999999999997          1.1212381525965787E-006
 -0.15749999999999997          1.1864394200487570E-006
 -0.15699999999999997          1.2552704881948343E-006
 -0.15649999999999997          1.3279239683182605E-006
 -0.15599999999999997          1.4046022890079924E-006
 -0.15549999999999997          1.4855178148299941E-006
 -0.15499999999999997          1.5708931042179149E-006
 -0.15449999999999997          1.6609619394603514E-006
 -0.15399999999999997          1.7559694483071934E-006
 -0.15349999999999997          1.8561725723659408E-006
 -0.15299999999999997          1.9618409679786225E-006
 -0.15249999999999997          2.0732573055368717E-006
 -0.15200000000000000          2.1907177561966265E-006
 -0.15150000000000000          2.3145333106213677E-006
 -0.15100000000000000          2.4450297881949001E-006
 -0.15049999999999999          2.5825487830398477E-006
 -0.14999999999999999          2.7274482978893292E-006
 -0.14949999999999999          2.8801042703920248E-006
 -0.14899999999999999          3.0409095777660061E-006
 -0.14849999999999999          3.2102763928158472E-006
 -0.14799999999999999          3.3886372219947719E-006
 -0.14749999999999999          3.5764435412604360E-006
 -0.14699999999999999          3.7741687210540057E-006
 -0.14649999999999999          3.9823090787282062E-006
 -0.14599999999999999          4.2013836689377330E-006
 -0.14549999999999999          4.4319349838261716E-006
 -0.14499999999999999          4.6745314275433637E-006
 -0.14449999999999999          4.9297681346143289E-006
 -0.14399999999999999          5.1982675256087978E-006
 -0.14349999999999999          5.4806799598222375E-006
 -0.14299999999999999          5.7776860428099877E-006
 -0.14249999999999999          6.0899979505854079E-006
 -0.14199999999999999          6.4183599784847990E-006
 -0.14149999999999999          6.7635497103779586E-006
 -0.14099999999999999          7.1263802589190937E-006
 -0.14049999999999999          7.5077005005244056E-006
 -0.13999999999999999          7.9083989688431442E-006
 -0.13949999999999999          8.3294014672073187E-006
 -0.13899999999999998          8.7716760466544837E-006
 -0.13849999999999998          9.2362350888663402E-006
 -0.13799999999999998          9.7241328298241463E-006
 -0.13749999999999998          1.0236471686945689E-005
 -0.13699999999999998          1.0774400509325000E-005
 -0.13649999999999998          1.1339119535214373E-005
 -0.13599999999999998          1.1931883009098184E-005
 -0.13550000000000001          1.2553997458605641E-005
 -0.13500000000000001          1.3206823473126861E-005
 -0.13450000000000001          1.3891784519203384E-005
 -0.13400000000000001          1.4610364111211465E-005
 -0.13350000000000001          1.5364108912463409E-005
 -0.13300000000000001          1.6154629182910526E-005
 -0.13250000000000001          1.6983606073345966E-005
 -0.13200000000000001          1.7852788851362987E-005
 -0.13150000000000001          1.8764002685692860E-005
 -0.13100000000000001          1.9719151347960747E-005
 -0.13050000000000000          2.0720210718276315E-005
 -0.13000000000000000          2.1769244857465827E-005
 -0.12950000000000000          2.2868400129911984E-005
 -0.12900000000000000          2.4019911898570498E-005
 -0.12850000000000000          2.5226103862361893E-005
 -0.12800000000000000          2.6489399753745172E-005
 -0.12750000000000000          2.7812320631637212E-005
 -0.12700000000000000          2.9197482636090976E-005
 -0.12650000000000000          3.0647617902054487E-005
 -0.12600000000000000          3.2165563279442974E-005
 -0.12550000000000000          3.3754264138530590E-005
 -0.12499999999999999          3.5416785004248035E-005
 -0.12449999999999999          3.7156314814494875E-005
 -0.12399999999999999          3.8976168359754158E-005
 -0.12349999999999998          4.0879791258921258E-005
 -0.12299999999999998          4.2870756145148056E-005
 -0.12249999999999998          4.4952782903786532E-005
 -0.12199999999999998          4.7129727012479585E-005
 -0.12149999999999998          4.9405600854888446E-005
 -0.12099999999999998          5.1784565724095408E-005
 -0.12049999999999998          5.4270938277976914E-005
 -0.12000000000000000          5.6869201325579282E-005
 -0.11950000000000000          5.9584011261450137E-005
 -0.11899999999999999          6.2420199316242739E-005
 -0.11849999999999999          6.5382772920914505E-005
 -0.11799999999999999          6.8476926415371106E-005
 -0.11749999999999999          7.1708058713786463E-005
 -0.11699999999999999          7.5081750230864745E-005
 -0.11649999999999999          7.8603793992072291E-005
 -0.11599999999999999          8.2280191984017203E-005
 -0.11549999999999999          8.6117166944190299E-005
 -0.11499999999999999          9.0121169632954493E-005
 -0.11449999999999999          9.4298871989889431E-005
 -0.11399999999999999          9.8657194299438884E-005
 -0.11349999999999999          1.0320329850911308E-004
 -0.11299999999999999          1.0794458920878797E-004
 -0.11249999999999999          1.1288876733664370E-004
 -0.11199999999999999          1.1804376312579080E-004
 -0.11149999999999999          1.2341781721479428E-004
 -0.11099999999999999          1.2901942900499919E-004
 -0.11049999999999999          1.3485740207441163E-004
 -0.10999999999999999          1.4094083265941802E-004
 -0.10949999999999999          1.4727914544808673E-004
 -0.10899999999999999          1.5388208037355502E-004
 -0.10849999999999999          1.6075966686723793E-004
 -0.10799999999999998          1.6792232480991820E-004
 -0.10749999999999998          1.7538079730758616E-004
 -0.10699999999999998          1.8314618985668568E-004
 -0.10649999999999998          1.9122996922877472E-004
 -0.10599999999999998          1.9964397609651915E-004
 -0.10549999999999998          2.0840042735600000E-004
 -0.10499999999999998          2.1751197182350902E-004
 -0.10449999999999998          2.2699162915300206E-004
 -0.10399999999999998          2.3685282719121864E-004
 -0.10349999999999998          2.4710945312149120E-004
 -0.10299999999999998          2.5777579737113734E-004
 -0.10249999999999998          2.6886664688941626E-004
 -0.10199999999999998          2.8039722625495384E-004
 -0.10149999999999998          2.9238320227080005E-004
 -0.10099999999999998          3.0484076585431542E-004
 -0.10049999999999998          3.1778654829372306E-004
  -9.9999999999999978E-002     3.3123777394805751E-004
  -9.9499999999999977E-002     3.4521213742220904E-004
  -9.8999999999999977E-002     3.5972783050146123E-004
  -9.8499999999999976E-002     3.7480362141780073E-004
  -9.7999999999999976E-002     3.9045885997845422E-004
  -9.7499999999999976E-002     4.0671340281764020E-004
  -9.6999999999999975E-002     4.2358772799801399E-004
  -9.6499999999999975E-002     4.4110290971564902E-004
  -9.5999999999999974E-002     4.5928059476597373E-004
  -9.5500000000000002E-002     4.7814300687212732E-004
  -9.5000000000000001E-002     4.9771309793404227E-004
  -9.4500000000000001E-002     5.1801440808981565E-004
  -9.4000000000000000E-002     5.3907118034335214E-004
  -9.3500000000000000E-002     5.6090823073464725E-004
  -9.2999999999999999E-002     5.8355116103675237E-004
  -9.2499999999999999E-002     6.0702623939091192E-004
  -9.1999999999999998E-002     6.3136039676189512E-004
  -9.1499999999999998E-002     6.5658135414184177E-004
  -9.0999999999999998E-002     6.8271748385022486E-004
  -9.0499999999999997E-002     7.0979795981527529E-004
  -8.9999999999999997E-002     7.3785275553865095E-004
  -8.9499999999999996E-002     7.6691255842628397E-004
  -8.8999999999999996E-002     7.9700885162323773E-004
  -8.8499999999999995E-002     8.2817385834901445E-004
  -8.7999999999999995E-002     8.6044076030857529E-004
  -8.7499999999999994E-002     8.9384353601932773E-004
  -8.6999999999999994E-002     9.2841681425269700E-004
  -8.6499999999999994E-002     9.6419623317716601E-004
  -8.5999999999999993E-002     1.0012183333605947E-003
  -8.5499999999999993E-002     1.0395204715650300E-003
  -8.4999999999999992E-002     1.0791408067983830E-003
  -8.4499999999999992E-002     1.1201186474592800E-003
  -8.3999999999999991E-002     1.1624939776095984E-003
  -8.3499999999999991E-002     1.2063077793778845E-003
  -8.2999999999999990E-002     1.2516019339643501E-003
  -8.2499999999999990E-002     1.2984192956355068E-003
  -8.1999999999999990E-002     1.3468039103828357E-003
  -8.1499999999999989E-002     1.3968004017088451E-003
  -8.0999999999999989E-002     1.4484544805850917E-003
  -8.0499999999999988E-002     1.5018129390511046E-003
  -7.9999999999999988E-002     1.5569235866367999E-003
  -7.9499999999999987E-002     1.6138350449423568E-003
  -7.8999999999999987E-002     1.6725971316338046E-003
  -7.8499999999999986E-002     1.7332605158649505E-003
  -7.7999999999999986E-002     1.7958771863488270E-003
  -7.7499999999999986E-002     1.8604999413746205E-003
  -7.6999999999999985E-002     1.9271826767951845E-003
  -7.6499999999999985E-002     1.9959802772076376E-003
  -7.5999999999999984E-002     2.0669487499368295E-003
  -7.5499999999999984E-002     2.1401449836294575E-003
  -7.4999999999999983E-002     2.2156272469025327E-003
  -7.4499999999999983E-002     2.2934547118787455E-003
  -7.3999999999999982E-002     2.3736873771590178E-003
  -7.3499999999999982E-002     2.4563866626561310E-003
  -7.2999999999999982E-002     2.5416150714293881E-003
  -7.2499999999999981E-002     2.6294356652180485E-003
  -7.1999999999999981E-002     2.7199131502089451E-003
  -7.1499999999999980E-002     2.8131130495951846E-003
  -7.0999999999999980E-002     2.9091021970359902E-003
  -7.0499999999999979E-002     3.0079479892139039E-003
  -6.9999999999999979E-002     3.1097190857801334E-003
  -6.9499999999999978E-002     3.2144851521917093E-003
  -6.8999999999999978E-002     3.3223172997134129E-003
  -6.8499999999999978E-002     3.4332875781150794E-003
  -6.7999999999999977E-002     3.5474684298304991E-003
  -6.7499999999999977E-002     3.6649341504207886E-003
  -6.6999999999999976E-002     3.7857589209762330E-003
  -6.6499999999999976E-002     3.9100188750343552E-003
  -6.5999999999999975E-002     4.0377908657952787E-003
  -6.5499999999999975E-002     4.1691530694367134E-003
  -6.4999999999999974E-002     4.3041829718584203E-003
  -6.4499999999999974E-002     4.4429614638388272E-003
  -6.4000000000000001E-002     4.5855687282058532E-003
  -6.3500000000000001E-002     4.7320861357825067E-003
  -6.3000000000000000E-002     4.8825958423556089E-003
  -6.2500000000000000E-002     5.0371818136852181E-003
  -6.2000000000000000E-002     5.1959271062698657E-003
  -6.1499999999999999E-002     5.3589172551523796E-003
  -6.0999999999999999E-002     5.5262369434835312E-003
  -6.0499999999999998E-002     5.6979728510060217E-003
  -5.9999999999999998E-002     5.8742121794208655E-003
  -5.9499999999999997E-002     6.0550420755036121E-003
  -5.8999999999999997E-002     6.2405506599844014E-003
  -5.8499999999999996E-002     6.4308266732361428E-003
  -5.7999999999999996E-002     6.6259597066601825E-003
  -5.7499999999999996E-002     6.8260390246592216E-003
  -5.6999999999999995E-002     7.0311554109363482E-003
  -5.6499999999999995E-002     7.2413994035343196E-003
  -5.5999999999999994E-002     7.4568623011634708E-003
  -5.5499999999999994E-002     7.6776347158812770E-003
  -5.4999999999999993E-002     7.9038089183714605E-003
  -5.4499999999999993E-002     8.1354768313389135E-003
  -5.3999999999999992E-002     8.3727290968974022E-003
  -5.3499999999999992E-002     8.6156593650136837E-003
  -5.2999999999999992E-002     8.8643598010811724E-003
  -5.2499999999999991E-002     9.1189213625537460E-003
  -5.1999999999999991E-002     9.3794380280590450E-003
  -5.1499999999999990E-002     9.6460002650567075E-003
  -5.0999999999999990E-002     9.9187007102513672E-003
  -5.0499999999999989E-002     1.0197630057109226E-002
  -4.9999999999999989E-002     1.0482880878350202E-002
  -4.9499999999999988E-002     1.0774542191440795E-002
  -4.8999999999999988E-002     1.1072705321145512E-002
  -4.8499999999999988E-002     1.1377458565622424E-002
  -4.7999999999999987E-002     1.1688892596310386E-002
  -4.7499999999999987E-002     1.2007095210705303E-002
  -4.6999999999999986E-002     1.2332152311710688E-002
  -4.6499999999999986E-002     1.2664152508788905E-002
  -4.5999999999999985E-002     1.3003179417605468E-002
  -4.5499999999999985E-002     1.3349317064443166E-002
  -4.4999999999999984E-002     1.3702649708133181E-002
  -4.4499999999999984E-002     1.4063257753084188E-002
  -4.3999999999999984E-002     1.4431222795543798E-002
  -4.3499999999999983E-002     1.4806624697117604E-002
  -4.2999999999999983E-002     1.5189540614269040E-002
  -4.2499999999999982E-002     1.5580046864706709E-002
  -4.1999999999999982E-002     1.5978214653042798E-002
  -4.1499999999999981E-002     1.6384117659660899E-002
  -4.0999999999999981E-002     1.6797826967672173E-002
  -4.0499999999999980E-002     1.7219411621635490E-002
  -3.9999999999999980E-002     1.7648934255630085E-002
  -3.9499999999999980E-002     1.8086458212957061E-002
  -3.8999999999999979E-002     1.8532046500913189E-002
  -3.8499999999999979E-002     1.8985756982914333E-002
  -3.7999999999999978E-002     1.9447645130412562E-002
  -3.7499999999999978E-002     1.9917762729655897E-002
  -3.6999999999999977E-002     2.0396162801289891E-002
  -3.6499999999999977E-002     2.0882890767784483E-002
  -3.5999999999999976E-002     2.1377989822068483E-002
  -3.5499999999999976E-002     2.1881501979805533E-002
  -3.4999999999999976E-002     2.2393462098321902E-002
  -3.4499999999999975E-002     2.2913904879971782E-002
  -3.3999999999999975E-002     2.3442858543467206E-002
  -3.3499999999999974E-002     2.3980350606002905E-002
  -3.2999999999999974E-002     2.4526401461036296E-002
  -3.2499999999999973E-002     2.5081028284717213E-002
  -3.1999999999999973E-002     2.5644248729050495E-002
  -3.1500000000000000E-002     2.6216066965107102E-002
  -3.1000000000000000E-002     2.6796491286488297E-002
  -3.0499999999999999E-002     2.7385522890862296E-002
  -2.9999999999999999E-002     2.7983155517538646E-002
  -2.9499999999999998E-002     2.8589382710802247E-002
  -2.8999999999999998E-002     2.9204186666213480E-002
  -2.8499999999999998E-002     2.9827547861917325E-002
  -2.7999999999999997E-002     3.0459442917312743E-002
  -2.7499999999999997E-002     3.1099843171843000E-002
  -2.6999999999999996E-002     3.1748707565514414E-002
  -2.6499999999999996E-002     3.2405998600579938E-002
  -2.5999999999999995E-002     3.3071667168962357E-002
  -2.5499999999999995E-002     3.3745656805553692E-002
  -2.4999999999999994E-002     3.4427915415282381E-002
  -2.4499999999999994E-002     3.5118375050566600E-002
  -2.3999999999999994E-002     3.5816962312979692E-002
  -2.3499999999999993E-002     3.6523602772133026E-002
  -2.2999999999999993E-002     3.7238213045674998E-002
  -2.2499999999999992E-002     3.7960698047735011E-002
  -2.1999999999999992E-002     3.8690964844170186E-002
  -2.1499999999999991E-002     3.9428905682467985E-002
  -2.0999999999999991E-002     4.0174406626495004E-002
  -2.0499999999999990E-002     4.0927349057157059E-002
  -1.9999999999999990E-002     4.1687611083426029E-002
  -1.9499999999999990E-002     4.2455056433343505E-002
  -1.8999999999999989E-002     4.3229547458738554E-002
  -1.8499999999999989E-002     4.4010931165569478E-002
  -1.7999999999999988E-002     4.4799054113775633E-002
  -1.7499999999999988E-002     4.5593755719679607E-002
  -1.6999999999999987E-002     4.6394860733226184E-002
  -1.6499999999999987E-002     4.7202188997881950E-002
  -1.5999999999999986E-002     4.8015557306077844E-002
  -1.5499999999999986E-002     4.8834766600353685E-002
  -1.4999999999999986E-002     4.9659617961355873E-002
  -1.4499999999999985E-002     5.0489894828065290E-002
  -1.3999999999999985E-002     5.1325381385536800E-002
  -1.3499999999999984E-002     5.2165850821768167E-002
  -1.2999999999999984E-002     5.3011063370342226E-002
  -1.2499999999999983E-002     5.3860776379683312E-002
  -1.1999999999999983E-002     5.4714743341795213E-002
  -1.1499999999999982E-002     5.5572698725497971E-002
  -1.0999999999999982E-002     5.6434372498151364E-002
  -1.0499999999999982E-002     5.7299493410886720E-002
  -9.9999999999999811E-003     5.8167774850067328E-002
  -9.4999999999999807E-003     5.9038919914294663E-002
  -8.9999999999999802E-003     5.9912630107091164E-002
  -8.4999999999999798E-003     6.0788591263227526E-002
  -7.9999999999999793E-003     6.1666491457299577E-002
  -7.4999999999999789E-003     6.2545990599398554E-002
  -6.9999999999999785E-003     6.3426760796035764E-002
  -6.4999999999999780E-003     6.4308458900893706E-002
  -5.9999999999999776E-003     6.5190729485462923E-002
  -5.4999999999999771E-003     6.6073207174528165E-002
  -4.9999999999999767E-003     6.6955530576496308E-002
  -4.4999999999999762E-003     6.7837315820830635E-002
  -3.9999999999999758E-003     6.8718187542577358E-002
  -3.4999999999999754E-003     6.9597750164553718E-002
  -2.9999999999999749E-003     7.0475599629439140E-002
  -2.4999999999999745E-003     7.1351340380551409E-002
  -1.9999999999999740E-003     7.2224544302825489E-002
  -1.4999999999999736E-003     7.3094800196994741E-002
  -9.9999999999997313E-004     7.3961670102616256E-002
  -4.9999999999997269E-004     7.4824716421525911E-002
   0.0000000000000000          7.5683505085464176E-002
   5.0000000000000044E-004     7.6537585792485208E-002
   1.0000000000000009E-003     7.7386493728943767E-002
   1.5000000000000013E-003     7.8229772101948147E-002
   2.0000000000000018E-003     7.9066949169761536E-002
   2.5000000000000022E-003     7.9897549819643338E-002
   3.0000000000000027E-003     8.0721092134034222E-002
   3.5000000000000031E-003     8.1537086142065035E-002
   4.0000000000000036E-003     8.2345049733409836E-002
   4.5000000000000040E-003     8.3144478569860791E-002
   5.0000000000000044E-003     8.3934879714856581E-002
   5.5000000000000049E-003     8.4715744925362879E-002
   6.0000000000000053E-003     8.5486551190933374E-002
   6.5000000000000058E-003     8.6246787181013140E-002
   7.0000000000000062E-003     8.6995930695779045E-002
   7.5000000000000067E-003     8.7733464852142340E-002
   8.0000000000000071E-003     8.8458856154477378E-002
   8.5000000000000075E-003     8.9171580402864103E-002
   9.0000000000000080E-003     8.9871111759564276E-002
   9.5000000000000084E-003     9.0556905747744804E-002
   1.0000000000000009E-002     9.1228431063199250E-002
   1.0500000000000009E-002     9.1885153180451207E-002
   1.1000000000000010E-002     9.2526533569179475E-002
   1.1500000000000010E-002     9.3152029538658560E-002
   1.2000000000000011E-002     9.3761108483269018E-002
   1.2500000000000011E-002     9.4353224565747490E-002
   1.3000000000000012E-002     9.4927838295415734E-002
   1.3500000000000012E-002     9.5484406378819192E-002
   1.4000000000000012E-002     9.6022399260651869E-002
   1.4500000000000013E-002     9.6541275679255412E-002
   1.5000000000000013E-002     9.7040502426868624E-002
   1.5500000000000014E-002     9.7519539148411133E-002
   1.6000000000000014E-002     9.7977860954898521E-002
   1.6500000000000015E-002     9.8414940270486417E-002
   1.7000000000000015E-002     9.8830247235750346E-002
   1.7500000000000016E-002     9.9223267703050372E-002
   1.8000000000000016E-002     9.9593479802603635E-002
   1.8500000000000016E-002     9.9940382452695875E-002
   1.9000000000000017E-002    0.10026346016182863     
   1.9500000000000017E-002    0.10056220997205087     
   2.0000000000000018E-002    0.10083613924952350     
   2.0500000000000018E-002    0.10108476323287161     
   2.1000000000000019E-002    0.10130760167206965     
   2.1500000000000019E-002    0.10150417928811958     
   2.2000000000000020E-002    0.10167402217816845     
   2.2500000000000020E-002    0.10181669089084844     
   2.3000000000000020E-002    0.10193172108651083     
   2.3500000000000021E-002    0.10201867563430544     
   2.4000000000000021E-002    0.10207712327574919     
   2.4500000000000022E-002    0.10210665053838525     
   2.5000000000000022E-002    0.10210683895285569     
   2.5500000000000023E-002    0.10207729387305720     
   2.6000000000000023E-002    0.10201762743124423     
   2.6500000000000024E-002    0.10192746654889337     
   2.7000000000000024E-002    0.10180645039289446     
   2.7500000000000024E-002    0.10165422693505310     
   2.8000000000000025E-002    0.10147046232252824     
   2.8500000000000025E-002    0.10125483854277445     
   2.9000000000000026E-002    0.10100704189193996     
   2.9500000000000026E-002    0.10072677975429659     
   3.0000000000000027E-002    0.10041377820672034     
   3.0500000000000027E-002    0.10006776079885024     
   3.1000000000000028E-002     9.9688491201521762E-002
   3.1500000000000028E-002     9.9275732978869380E-002
   3.2000000000000028E-002     9.8829267945969995E-002