 -0.23999999999999999          0.0000000000000000     
 -0.23949999999999999          0.0000000000000000     
 -0.23899999999999999          0.0000000000000000     
 -0.23849999999999999          0.0000000000000000     
 -0.23799999999999999          0.0000000000000000     
 -0.23749999999999999          0.0000000000000000     
 -0.23699999999999999          0.0000000000000000     
 -0.23649999999999999          0.0000000000000000     
 -0.23599999999999999          0.0000000000000000     
 -0.23549999999999999          0.0000000000000000     
 -0.23499999999999999          4.9116946104212307E-038
 -0.23449999999999999          8.9876664755223637E-037
 -0.23399999999999999          8.4663473941866416E-036
 -0.23349999999999999          5.4514606627589400E-035
 -0.23299999999999998          2.6863749182671841E-034
 -0.23249999999999998          1.0744691520702546E-033
 -0.23199999999999998          3.6063450366357748E-033
 -0.23149999999999998          1.0335917584636919E-032
 -0.23099999999999998          2.5378852504592138E-032
 -0.23049999999999998          5.2496061320010799E-032
 -0.22999999999999998          8.5666390132912519E-032
 -0.22949999999999998          8.1571255810763620E-032
 -0.22899999999999998         -1.0464894881924254E-031
 -0.22849999999999998         -8.4768301869435134E-031
 -0.22799999999999998         -2.9760370399542039E-030
 -0.22749999999999998         -8.1137269409010656E-030
 -0.22699999999999998         -1.9123422077030301E-029
 -0.22649999999999998         -4.0550662618395380E-029
 -0.22599999999999998         -7.8824635301281999E-029
 -0.22549999999999998         -1.4176663190781287E-028
 -0.22499999999999998         -2.3672144206847944E-028
 -0.22449999999999998         -3.6643241456284660E-028
 -0.22399999999999998         -5.2175469234716687E-028
 -0.22349999999999998         -6.7062411777869340E-028
 -0.22299999999999998         -7.4357656258688334E-028
 -0.22249999999999998         -6.1771314071304009E-028
 -0.22199999999999998         -1.0338536386216511E-028
 -0.22150000000000000          1.0591598766084133E-027
 -0.22100000000000000          3.1829233671095476E-027
 -0.22050000000000000          6.5847136501451384E-027
 -0.22000000000000000          1.1490935442554069E-026
 -0.21950000000000000          1.7890454750734841E-026
 -0.21900000000000000          2.5335868804142569E-026
 -0.21850000000000000          3.2710323894679293E-026
 -0.21800000000000000          3.7998890544111710E-026
 -0.21750000000000000          3.8129194341917084E-026
 -0.21700000000000000          2.8970993781439434E-026
 -0.21650000000000000          5.6015826506898306E-027
 -0.21600000000000000         -3.7055795005968347E-026
 -0.21550000000000000         -1.0313939718599160E-025
 -0.21500000000000000         -1.9428229076344781E-025
 -0.21450000000000000         -3.0765109382647314E-025
 -0.21400000000000000         -4.3380560652990091E-025
 -0.21350000000000000         -5.5475316887270752E-025
 -0.21299999999999999         -6.4272619746585612E-025
 -0.21249999999999999         -6.6033135419909317E-025
 -0.21199999999999999         -5.6275320452778011E-025
 -0.21149999999999999         -3.0260307428635074E-025
 -0.21099999999999999          1.6224996508341477E-025
 -0.21049999999999999          8.5797646039388499E-025
 -0.20999999999999999          1.7819365995593026E-024
 -0.20949999999999999          2.8891480423238166E-024
 -0.20899999999999999          4.0803009907215406E-024
 -0.20849999999999999          5.1942183428261121E-024
 -0.20799999999999999          6.0080104080957287E-024
 -0.20749999999999999          6.2481298068836895E-024
 -0.20699999999999999          5.6147774463393483E-024
 -0.20649999999999999          3.8207562865729650E-024
 -0.20599999999999999          6.4371390062299940E-025
 -0.20549999999999999         -4.0119824808857801E-024
 -0.20499999999999999         -1.0050469741193817E-023
 -0.20449999999999999         -1.7126348534912746E-023
 -0.20399999999999999         -2.4605191678514862E-023
 -0.20349999999999999         -3.1555389152813979E-023
 -0.20299999999999999         -3.6783227169698800E-023
 -0.20249999999999999         -3.8920055724438027E-023
 -0.20199999999999999         -3.6564873626577245E-023
 -0.20149999999999998         -2.8477935476463702E-023
 -0.20099999999999998         -1.3811823223881830E-023
 -0.20049999999999998          7.6436369755636903E-024
 -0.19999999999999998          3.5235059244209977E-023
 -0.19949999999999998          6.7276752746100122E-023
 -0.19899999999999998          1.0098089803054027E-022
 -0.19849999999999998          1.3252445426977593E-022
 -0.19799999999999998          1.5728032311435344E-022
 -0.19749999999999998          1.7022362468108323E-022
 -0.19699999999999998          1.6650078181006630E-022
 -0.19649999999999998          1.4212182439511615E-022
 -0.19600000000000001          9.4708974206602851E-023
 -0.19550000000000001          2.4208929490882433E-023
 -0.19500000000000001         -6.6540354246519928E-023
 -0.19450000000000001         -1.7150353572258622E-022
 -0.19400000000000001         -2.8150671796767334E-022
 -0.19350000000000001         -3.8473806576685363E-022
 -0.19300000000000000         -4.6772009881370507E-022
 -0.19250000000000000         -5.1672393629764259E-022
 -0.19200000000000000         -5.1952218370064256E-022
 -0.19150000000000000         -4.6730842701715005E-022
 -0.19100000000000000         -3.5654453042394020E-022
 -0.19050000000000000         -1.9045458737331301E-022
 -0.19000000000000000          2.0126063124497114E-023
 -0.18950000000000000          2.5681234240837962E-022
 -0.18900000000000000          4.9483202381402634E-022
 -0.18850000000000000          7.0536054638321946E-022
 -0.18800000000000000          8.5894305560535682E-022
 -0.18750000000000000          9.2973636725120220E-022
 -0.18700000000000000          9.0011750540296097E-022
 -0.18650000000000000          7.6504588868998605E-022
 -0.18600000000000000          5.3545217576341152E-022
 -0.18550000000000000          2.3989835680687418E-022
 -0.18500000000000000         -7.6173835268657540E-023
 -0.18450000000000000         -3.5409795090160052E-022
 -0.18400000000000000         -5.2872249804427969E-022
 -0.18350000000000000         -5.3800177420908583E-022
 -0.18300000000000000         -3.3471696374664103E-022
 -0.18250000000000000          1.0089513938381188E-022
 -0.18200000000000000          7.4929174318932172E-022
 -0.18149999999999999          1.5425698655827877E-021
 -0.18099999999999999          2.3603671480621670E-021
 -0.18049999999999999          3.0327456345682622E-021
 -0.17999999999999999          3.3516374931980924E-021
 -0.17949999999999999          3.0916594330443992E-021
 -0.17899999999999999          2.0399929882369902E-021
 -0.17849999999999999          3.3709932368040848E-023
 -0.17799999999999999         -2.9985634458861453E-021
 -0.17749999999999999         -6.9951748268832874E-021
 -0.17699999999999999         -1.1725916069714952E-020
 -0.17649999999999999         -1.6768952728908764E-020
 -0.17599999999999999         -2.1506865563027778E-020
 -0.17549999999999999         -2.5147778577362356E-020
 -0.17499999999999999         -2.6775946288266611E-020
 -0.17449999999999999         -2.5433584019283633E-020
 -0.17399999999999999         -2.0232351491319755E-020
 -0.17349999999999999         -1.0488764066065330E-020
 -0.17299999999999999          4.1265379080467463E-021
 -0.17249999999999999          2.3440056124810961E-020
 -0.17199999999999999          4.6645196186831131E-020
 -0.17149999999999999          7.2210954620712787E-020
 -0.17099999999999999          9.7850432295513964E-020
 -0.17049999999999998          1.2056863116420463E-019
 -0.16999999999999998          1.3680449345330424E-019
 -0.16949999999999998          1.4267556294726421E-019
 -0.16899999999999998          1.3432408898898742E-019
 -0.16849999999999998          1.0835206532089432E-019
 -0.16799999999999998          6.2320116929520419E-020
 -0.16749999999999998         -4.7274450411817405E-021
 -0.16699999999999998         -9.1760735088247110E-020
 -0.16649999999999998         -1.9534345794291967E-019
 -0.16599999999999998         -3.0935613991536456E-019
 -0.16549999999999998         -4.2492508466214555E-019
 -0.16499999999999998         -5.3061263320894464E-019
 -0.16449999999999998         -6.1290909084578678E-019
 -0.16399999999999998         -6.5704677624736864E-019
 -0.16349999999999998         -6.4812940735252901E-019
 -0.16299999999999998         -5.7253786896588857E-019
 -0.16249999999999998         -4.1954031982018433E-019
 -0.16199999999999998         -1.8300008789664439E-019
 -0.16149999999999998          1.3695487230372697E-019
 -0.16099999999999998          5.3246086489011781E-019
 -0.16049999999999998          9.8681799217448335E-019
 -0.15999999999999998          1.4739330743783856E-018
 -0.15949999999999998          1.9584619763971408E-018
 -0.15899999999999997          2.3967793995198554E-018
 -0.15849999999999997          2.7388502224689625E-018
 -0.15799999999999997          2.9310226835336602E-018
 -0.15749999999999997          2.9196826577210176E-018
 -0.15699999999999997          2.6556346120752091E-018
 -0.15649999999999997          2.0989890023267839E-018
 -0.15599999999999997          1.2242700097776040E-018
 -0.15549999999999997          2.5379314831869045E-020
 -0.15499999999999997         -1.4799760423433917E-018
 -0.15449999999999997         -3.2468129444461919E-018
 -0.15399999999999997         -5.2007690612516032E-018
 -0.15349999999999997         -7.2377344068879360E-018
 -0.15299999999999997         -9.2255147661212532E-018
 -0.15249999999999997         -1.1007722545161667E-017
 -0.15200000000000000         -1.2409963255464622E-017
 -0.15150000000000000         -1.3248251249283012E-017
 -0.15100000000000000         -1.3339402416883293E-017
 -0.15049999999999999         -1.2513072973180582E-017
 -0.14999999999999999         -1.0624875233531299E-017
 -0.14949999999999999         -7.5699557834882211E-018
 -0.14899999999999999         -3.2963172225656529E-018
 -0.14849999999999999          2.1829275685759087E-018
 -0.14799999999999999          8.7791366747243624E-018
 -0.14749999999999999          1.6320347931926366E-017
 -0.14699999999999999          2.4546793127025460E-017
 -0.14649999999999999          3.3110342545880739E-017
 -0.14599999999999999          4.1578319516761642E-017
 -0.14549999999999999          4.9442017889115406E-017
 -0.14499999999999999          5.6130067617904704E-017
 -0.14449999999999999          6.1026632737083805E-017
 -0.14399999999999999          6.3494264705562197E-017
 -0.14349999999999999          6.2901076944688169E-017
 -0.14299999999999999          5.8651737641439959E-017
 -0.14249999999999999          5.0221658777503786E-017
 -0.14199999999999999          3.7193607143185453E-017
 -0.14149999999999999          1.9295797658979637E-017
 -0.14099999999999999         -3.5595897863871929E-018
 -0.14049999999999999         -3.1238823248922362E-017
 -0.13999999999999999         -6.3351354365492635E-017
 -0.13949999999999999         -9.9218673349400364E-017
 -0.13899999999999998         -1.3784918586081903E-016
 -0.13849999999999998         -1.7792146756247273E-016
 -0.13799999999999998         -2.1777817937905020E-016
 -0.13749999999999998         -2.5543332021681574E-016
 -0.13699999999999998         -2.8859556007432806E-016
 -0.13649999999999998         -3.1471037993156619E-016
 -0.13599999999999998         -3.3102304335560194E-016
 -0.13550000000000001         -3.3466470269364419E-016
 -0.13500000000000001         -3.2276248688640238E-016
 -0.13450000000000001         -2.9257383559956509E-016
 -0.13400000000000001         -2.4164399441243016E-016
 -0.13350000000000001         -1.6798337557612583E-016
 -0.13300000000000001         -7.0260926371046084E-017
 -0.13250000000000001          5.1993903166065998E-017
 -0.13200000000000001          1.9818843812631617E-016
 -0.13150000000000001          3.6647441622284860E-016
 -0.13100000000000001          5.5357795916157436E-016
 -0.13050000000000000          7.5466538078475818E-016
 -0.13000000000000000          9.6325931426562801E-016
 -0.12950000000000000          1.1712194553437148E-015
 -0.12900000000000000          1.3688020663893971E-015
 -0.12850000000000000          1.5448089483234995E-015
 -0.12800000000000000          1.6868362565455484E-015
 -0.12750000000000000          1.7816294077386717E-015
 -0.12700000000000000          1.8155427011226025E-015
 -0.12650000000000000          1.7751019600888932E-015
 -0.12600000000000000          1.6476581239988400E-015
 -0.12550000000000000          1.4221165435510694E-015
 -0.12499999999999999          1.0897172040050772E-015
 -0.12449999999999999          6.4483956529979842E-016
 -0.12399999999999999          8.5794332718497677E-017
 -0.12349999999999998         -5.8443266951252915E-016
 -0.12299999999999998         -1.3575287990152713E-015
 -0.12249999999999998         -2.2193377066388308E-015
 -0.12199999999999998         -3.1495173138197446E-015
 -0.12149999999999998         -4.1214154112353008E-015
 -0.12099999999999998         -5.1021944373445816E-015
 -0.12049999999999998         -6.0532362542581319E-015
 -0.12000000000000000         -6.9308432792600499E-015
 -0.11950000000000000         -7.6872466657734555E-015
 -0.11899999999999999         -8.2719162398134198E-015
 -0.11849999999999999         -8.6331639333561173E-015
 -0.11799999999999999         -8.7199975159438919E-015
 -0.11749999999999999         -8.4841954018895563E-015
 -0.11699999999999999         -7.8825495935207213E-015
 -0.11649999999999999         -6.8791958688176925E-015
 -0.11599999999999999         -5.4479685330068375E-015
 -0.11549999999999999         -3.5747009600453281E-015
 -0.11499999999999999         -1.2593636096591286E-015
 -0.11449999999999999          1.4820356542398386E-015
 -0.11399999999999999          4.6158852937551020E-015
 -0.11349999999999999          8.0898304141751101E-015
 -0.11299999999999999          1.1832143947889014E-014
 -0.11249999999999999          1.5751678797025145E-014
 -0.11199999999999999          1.9738476532502741E-014
 -0.11149999999999999          2.3665057001694134E-014
 -0.11099999999999999          2.7388468148157111E-014
 -0.11049999999999999          3.0753062585636010E-014
 -0.10999999999999999          3.3594017866990511E-014
 -0.10949999999999999          3.5741564872668330E-014
 -0.10899999999999999          3.7025893825535713E-014
 -0.10849999999999999          3.7282615959321336E-014
 -0.10799999999999998          3.6358696137378868E-014
 -0.10749999999999998          3.4118741225287394E-014
 -0.10699999999999998          3.0451474810700221E-014
 -0.10649999999999998          2.5276200064732433E-014
 -0.10599999999999998          1.8549094890824881E-014
 -0.10549999999999998          1.0269058993179082E-014
 -0.10499999999999998          4.8296013413471370E-016
 -0.10449999999999998         -1.0710022651453776E-014
 -0.10399999999999998         -2.3155151637776518E-014
 -0.10349999999999998         -3.6640236336519041E-014
 -0.10299999999999998         -5.0895268902118040E-014
 -0.10249999999999998         -6.5593790978240446E-014
 -0.10199999999999998         -8.0356159009795092E-014
 -0.10149999999999998         -9.4754750107426539E-014
 -0.10099999999999998         -1.0832121603767536E-013
 -0.10049999999999998         -1.2055574637528932E-013
  -9.9999999999999978E-002    -1.3093821545680923E-013
  -9.9499999999999977E-002    -1.3894114537279373E-013
  -9.8999999999999977E-002    -1.4404425460572134E-013
  -9.8499999999999976E-002    -1.4575007054127426E-013
  -9.7999999999999976E-002    -1.4360061262926743E-013
  -9.7499999999999976E-002    -1.3719445501533811E-013
  -9.6999999999999975E-002    -1.2620370785747237E-013
  -9.6499999999999975E-002    -1.1039051752781762E-013
  -9.5999999999999974E-002    -8.9622462283531906E-014
  -9.5500000000000002E-002    -6.3886328410638071E-014
  -9.5000000000000001E-002    -3.3299775561773312E-014
  -9.4500000000000001E-002     1.8796722008339361E-015
  -9.4000000000000000E-002     4.1248671551986568E-014
  -9.3500000000000000E-002     8.4255559885774989E-014
  -9.2999999999999999E-002     1.3020156784324111E-013
  -9.2499999999999999E-002     1.7824591358028136E-013
  -9.1999999999999998E-002     2.2741490223084082E-013
  -9.1499999999999998E-002     2.7661499393122346E-013
  -9.0999999999999998E-002     3.2464962250629281E-013
  -9.0499999999999997E-002     3.7023964623295047E-013
  -8.9999999999999997E-002     4.1204691568486052E-013
  -8.9499999999999996E-002     4.4870056563513228E-013
  -8.8999999999999996E-002     4.7882574641389120E-013
  -8.8499999999999995E-002     5.0107368341351100E-013
  -8.7999999999999995E-002     5.1415295632128988E-013
  -8.7499999999999994E-002     5.1686107650772417E-013
  -8.6999999999999994E-002     5.0811584757434747E-013
  -8.6499999999999994E-002     4.8698523512358260E-013
  -8.5999999999999993E-002     4.5271680284772464E-013
  -8.5499999999999993E-002     4.0476348943559171E-013
  -8.4999999999999992E-002     3.4280805733151454E-013
  -8.4499999999999992E-002     2.6678325889574472E-013
  -8.3999999999999991E-002     1.7688930561195887E-013
  -8.3499999999999991E-002     7.3606539700149520E-014
  -8.2999999999999990E-002    -4.2295350164908707E-014
  -8.2499999999999990E-002    -1.6975299204496919E-013
  -8.1999999999999990E-002    -3.0740953402622062E-013
  -8.1499999999999989E-002    -4.5361923852599295E-013
  -8.0999999999999989E-002    -6.0645726721736404E-013
  -8.0499999999999988E-002    -7.6373353171191316E-013
  -7.9999999999999988E-002    -9.2301199235839126E-013
  -7.9499999999999987E-002    -1.0816339143793208E-012
  -7.8999999999999987E-002    -1.2367454066061767E-012
  -7.8499999999999986E-002    -1.3853297849142354E-012
  -7.7999999999999986E-002    -1.5242437303650269E-012
  -7.7499999999999986E-002    -1.6502564289047617E-012
  -7.6999999999999985E-002    -1.7600939152331851E-012
  -7.6499999999999985E-002    -1.8504843924543879E-012
  -7.5999999999999984E-002    -1.9182082137969569E-012
  -7.5499999999999984E-002    -1.9601490569565172E-012
  -7.4999999999999983E-002    -1.9733472668426177E-012
  -7.4499999999999983E-002    -1.9550548246288768E-012
  -7.3999999999999982E-002    -1.9027910757446476E-012
  -7.3499999999999982E-002    -1.8143982410262494E-012
  -7.2999999999999982E-002    -1.6880983373310232E-012
  -7.2499999999999981E-002    -1.5225470623853044E-012
  -7.1999999999999981E-002    -1.3168871375313085E-012
  -7.1499999999999980E-002    -1.0708005662718456E-012
  -7.0999999999999980E-002    -7.8455579706482315E-013
  -7.0499999999999979E-002    -4.5905385612568517E-013
  -6.9999999999999979E-002    -9.5867331271776851E-014
  -6.9499999999999978E-002     3.0272323276597790E-013
  -6.8999999999999978E-002     7.3369993891167495E-013
  -6.8499999999999978E-002     1.1932844035805745E-012
  -6.7999999999999977E-002     1.6769238992200841E-012
  -6.7499999999999977E-002     2.1792830127292939E-012
  -6.6999999999999976E-002     2.6942480364777754E-012
  -6.6499999999999976E-002     3.2149391655800219E-012
  -6.5999999999999975E-002     3.7337355429656327E-012
  -6.5499999999999975E-002     4.2423126643542641E-012
  -6.4999999999999974E-002     4.7316933357577362E-012
  -6.4499999999999974E-002     5.1923109908869058E-012
  -6.4000000000000001E-002     5.6140903557932997E-012
  -6.3500000000000001E-002     5.9865428586602931E-012
  -6.3000000000000000E-002     6.2988767847438343E-012
  -6.2500000000000000E-002     6.5401278143140118E-012
  -6.2000000000000000E-002     6.6992991015757397E-012
  -6.1499999999999999E-002     6.7655252060372373E-012
  -6.0999999999999999E-002     6.7282433964532817E-012
  -6.0499999999999998E-002     6.5773844704075657E-012
  -5.9999999999999998E-002     6.3035752832785175E-012
  -5.9499999999999997E-002     5.8983503845033702E-012
  -5.8999999999999997E-002     5.3543736285022181E-012
  -5.8499999999999996E-002     4.6656667244959760E-012
  -5.7999999999999996E-002     3.8278403884095535E-012
  -5.7499999999999996E-002     2.8383265789772016E-012
  -5.6999999999999995E-002     1.6966116012095966E-012
  -5.6499999999999995E-002     4.0445619943485500E-013
  -5.5999999999999994E-002    -1.0338833738784969E-012
  -5.5499999999999994E-002    -2.6114542386185269E-012
  -5.4999999999999993E-002    -4.3184175853305806E-012
  -5.4499999999999993E-002    -6.1418712997418634E-012
  -5.3999999999999992E-002    -8.0657017523244612E-012
  -5.3499999999999992E-002    -1.0070445345677914E-011
  -5.2999999999999992E-002    -1.2133179877471534E-011
  -5.2499999999999991E-002    -1.4227439538994080E-011
  -5.1999999999999991E-002    -1.6323147694619067E-011
  -5.1499999999999990E-002    -1.8386580452611767E-011
  -5.0999999999999990E-002    -2.0380339776915335E-011
  -5.0499999999999989E-002    -2.2263363028129923E-011
  -4.9999999999999989E-002    -2.3990944647556134E-011
  -4.9499999999999988E-002    -2.5514782994728868E-011
  -4.8999999999999988E-002    -2.6783020246057276E-011
  -4.8499999999999988E-002    -2.7740330865722029E-011
  -4.7999999999999987E-002    -2.8327990994614360E-011
  -4.7499999999999987E-002    -2.8483966921233339E-011
  -4.6999999999999986E-002    -2.8143001817859670E-011
  -4.6499999999999986E-002    -2.7236723293411202E-011
  -4.5999999999999985E-002    -2.5693712782381972E-011
  -4.5499999999999985E-002    -2.3439604424080329E-011
  -4.4999999999999984E-002    -2.0397168329355786E-011
  -4.4499999999999984E-002    -1.6486369561197201E-011
  -4.3999999999999984E-002    -1.1624401961840558E-011
  -4.3499999999999983E-002    -5.7257735879001626E-012
  -4.2999999999999983E-002     1.2977124800098161E-012
  -4.2499999999999982E-002     9.5369536920464348E-012
  -4.1999999999999982E-002     1.9085578603639242E-011
  -4.1499999999999981E-002     3.0040022552801915E-011
  -4.0999999999999981E-002     4.2499587182831533E-011
  -4.0499999999999980E-002     5.6566560463489068E-011
  -3.9999999999999980E-002     7.2346434398795623E-011
  -3.9499999999999980E-002     8.9948042070187029E-011
  -3.8999999999999979E-002     1.0948384560061086E-010
  -3.8499999999999979E-002     1.3107021024083565E-010
  -3.7999999999999978E-002     1.5482772008912349E-010
  -3.7499999999999978E-002     1.8088171238606066E-010
  -3.6999999999999977E-002     2.0936254119252595E-010
  -3.6499999999999977E-002     2.4040622270682377E-010
  -3.5999999999999976E-002     2.7415500425398420E-010
  -3.5499999999999976E-002     3.1075791939727537E-010
  -3.4999999999999976E-002     3.5037170387219874E-010
  -3.4499999999999975E-002     3.9316133682021359E-010
  -3.3999999999999975E-002     4.3930106774503486E-010
  -3.3499999999999974E-002     4.8897530469105277E-010
  -3.2999999999999974E-002     5.4237969671078190E-010
  -3.2499999999999973E-002     5.9972227184346139E-010
  -3.1999999999999973E-002     6.6122429753789902E-010
  -3.1500000000000000E-002     7.2712219578718873E-010
  -3.1000000000000000E-002     7.9766826477367658E-010
  -3.0499999999999999E-002     8.7313251073695142E-010
  -2.9999999999999999E-002     9.5380392473032316E-010
  -2.9499999999999998E-002     1.0399925365334184E-009
  -2.8999999999999998E-002     1.1320308024309611E-009
  -2.8499999999999998E-002     1.2302753260584609E-009
  -2.7999999999999997E-002     1.3351091343594135E-009
  -2.7499999999999997E-002     1.4469436759867449E-009
  -2.6999999999999996E-002     1.5662205976596510E-009
  -2.6499999999999996E-002     1.6934140756319493E-009
  -2.5999999999999995E-002     1.8290329251158255E-009
  -2.5499999999999995E-002     1.9736234868616975E-009
  -2.4999999999999994E-002     2.1277717365819626E-009
  -2.4499999999999994E-002     2.2921062825531635E-009
  -2.3999999999999994E-002     2.4673001419728280E-009
  -2.3499999999999993E-002     2.6540747377623575E-009
  -2.2999999999999993E-002     2.8532007867454467E-009
  -2.2499999999999992E-002     3.0655034066739972E-009
  -2.1999999999999992E-002     3.2918652248525859E-009
  -2.1499999999999991E-002     3.5332272663168851E-009
  -2.0999999999999991E-002     3.7905962813056249E-009
  -2.0499999999999990E-002     4.0650425248145439E-009
  -1.9999999999999990E-002     4.3577110808712405E-009
  -1.9499999999999990E-002     4.6698174216430743E-009
  -1.8999999999999989E-002     5.0026573994443879E-009
  -1.8499999999999989E-002     5.3576121317178149E-009
  -1.7999999999999988E-002     5.7361475569450704E-009
  -1.7499999999999988E-002     6.1398242046095675E-009
  -1.6999999999999987E-002     6.5702954188395779E-009
  -1.6499999999999987E-002     7.0293224574413671E-009
  -1.5999999999999986E-002     7.5187731596315643E-009
  -1.5499999999999986E-002     8.0406303837321502E-009
  -1.4999999999999986E-002     8.5969960039733451E-009
  -1.4499999999999985E-002     9.1901029009022750E-009
  -1.3999999999999985E-002     9.8223180700074408E-009
  -1.3499999999999984E-002     1.0496152391681335E-008
  -1.2999999999999984E-002     1.1214259743042021E-008
  -1.2499999999999983E-002     1.1979463643285726E-008
  -1.1999999999999983E-002     1.2794751924616321E-008
  -1.1499999999999982E-002     1.3663288278564778E-008
  -1.0999999999999982E-002     1.4588423802308625E-008
  -1.0499999999999982E-002     1.5573714762240343E-008
  -9.9999999999999811E-003     1.6622921705788940E-008
  -9.4999999999999807E-003     1.7740029889523612E-008
  -8.9999999999999802E-003     1.8929256384581095E-008
  -8.4999999999999798E-003     2.0195072281126158E-008
  -7.9999999999999793E-003     2.1542208017422126E-008
  -7.4999999999999789E-003     2.2975676472469786E-008
  -6.9999999999999785E-003     2.4500776518721068E-008
  -6.4999999999999780E-003     2.6123117891074799E-008
  -5.9999999999999776E-003     2.7848653161299808E-008
  -5.4999999999999771E-003     2.9683656421752858E-008
  -4.9999999999999767E-003     3.1634783681511180E-008
  -4.4999999999999762E-003     3.3709067537301962E-008
  -3.9999999999999758E-003     3.5913970464207523E-008
  -3.4999999999999754E-003     3.8257365275740085E-008
  -2.9999999999999749E-003     4.0747579532762757E-008
  -2.4999999999999745E-003     4.3393438176053678E-008
  -1.9999999999999740E-003     4.6204249315451307E-008
  -1.4999999999999736E-003     4.9189875284127993E-008
  -9.9999999999997313E-004     5.2360739744017337E-008
  -4.9999999999997269E-004     5.5727866765664658E-008
   0.0000000000000000          5.9302905697222741E-008
   5.0000000000000044E-004     6.3098156033447594E-008
   1.0000000000000009E-003     6.7126620706403628E-008
   1.5000000000000013E-003     7.1402070034309872E-008
   2.0000000000000018E-003     7.5939027510685264E-008
   2.5000000000000022E-003     8.0752840858622221E-008
   3.0000000000000027E-003     8.5859717557923432E-008
   3.5000000000000031E-003     9.1276788793948072E-008
   4.0000000000000036E-003     9.7022109457611805E-008
   4.5000000000000040E-003     1.0311477183222451E-007
   5.0000000000000044E-003     1.0957492690977233E-007
   5.5000000000000049E-003     1.1642382702348186E-007
   6.0000000000000053E-003     1.2368393242923048E-007
   6.5000000000000058E-003     1.3137889709469164E-007
   7.0000000000000062E-003     1.3953372501873673E-007
   7.5000000000000067E-003     1.4817474891515303E-007
   8.0000000000000071E-003     1.5732979363747290E-007
   8.5000000000000075E-003     1.6702810512470023E-007
   9.0000000000000080E-003     1.7730056356413115E-007
   9.5000000000000084E-003     1.8817975444562762E-007
   1.0000000000000009E-002     1.9969992592905328E-007
   1.0500000000000009E-002     2.1189732990478660E-007
   1.1000000000000010E-002     2.2480999462004547E-007
   1.1500000000000010E-002     2.3847817942623806E-007
   1.2000000000000011E-002     2.5294403371844965E-007
   1.2500000000000011E-002     2.6825213694792183E-007
   1.3000000000000012E-002     2.8444935651350534E-007
   1.3500000000000012E-002     3.0158503250277136E-007
   1.4000000000000012E-002     3.1971114822226809E-007
   1.4500000000000013E-002     3.3888235861923022E-007
   1.5000000000000013E-002     3.5915621765525430E-007
   1.5500000000000014E-002     3.8059323514971766E-007
   1.6000000000000014E-002     4.0325699046661612E-007
   1.6500000000000015E-002     4.2721455884020543E-007
   1.7000000000000015E-002     4.5253625557961641E-007
   1.7500000000000016E-002     4.7929620450304355E-007
   1.8000000000000016E-002     5.0757228109432617E-007
   1.8500000000000016E-002     5.3744633987662382E-007
   1.9000000000000017E-002     5.6900449862951064E-007
   1.9500000000000017E-002     6.0233702470213757E-007
   2.0000000000000018E-002     6.3753907397767762E-007
   2.0500000000000018E-002     6.7471023612597492E-007
   2.1000000000000019E-002     7.1395555778508424E-007
   2.1500000000000019E-002     7.5538491728366353E-007
   2.2000000000000020E-002     7.9911404782251338E-007
   2.2500000000000020E-002     8.4526425325748278E-007
   2.3000000000000020E-002     8.9396320390733308E-007
   2.3500000000000021E-002     9.4534476602348150E-007
   2.4000000000000021E-002     9.9954911547683878E-007
   2.4500000000000022E-002     1.0567234767222544E-006
   2.5000000000000022E-002     1.1170224070156110E-006
   2.5500000000000023E-002     1.1806084785348503E-006
   2.6000000000000023E-002     1.2476510846681776E-006
   2.6500000000000024E-002     1.3183291684981668E-006
   2.7000000000000024E-002     1.3928290627518436E-006
   2.7500000000000024E-002     1.4713472182847909E-006
   2.8000000000000025E-002     1.5540892945864471E-006
   2.8500000000000025E-002     1.6412703871537815E-006
   2.9000000000000026E-002     1.7331159369859961E-006
   2.9500000000000026E-002     1.8298629811397404E-006
   3.0000000000000027E-002     1.9317594706080854E-006
   3.0500000000000027E-002     2.0390634745126590E-006
   3.1000000000000028E-002     2.1520475002034800E-006
   3.1500000000000028E-002     2.2709955374011770E-006
   3.2000000000000028E-002     2.3962063551152823E-006