 -0.23999999999999999          0.0000000000000000     
 -0.23949999999999999          0.0000000000000000     
 -0.23899999999999999          0.0000000000000000     
 -0.23849999999999999          0.0000000000000000     
 -0.23799999999999999          0.0000000000000000     
 -0.23749999999999999          0.0000000000000000     
 -0.23699999999999999          0.0000000000000000     
 -0.23649999999999999          0.0000000000000000     
 -0.23599999999999999          0.0000000000000000     
 -0.23549999999999999          4.9116946642310917E-035
 -0.23499999999999999          8.9876654208490875E-034
 -0.23449999999999999          8.4172301548186867E-033
 -0.23399999999999999          5.3615837238604110E-032
 -0.23349999999999999          2.6017113023246817E-031
 -0.23299999999999998          1.0199545369937995E-030
 -0.23249999999999998          3.3377076875214175E-030
 -0.23199999999999998          9.2614480277557970E-030
 -0.23149999999999998          2.1772507118246794E-029
 -0.23099999999999998          4.2160138198795488E-029
 -0.23049999999999998          6.0287523475368397E-029
 -0.22999999999999998          2.9075195619227398E-029
 -0.22949999999999998         -1.9031531746411833E-028
 -0.22899999999999998         -9.2925416852254429E-028
 -0.22849999999999998         -2.8713882133863738E-027
 -0.22799999999999998         -7.2660437235951888E-027
 -0.22749999999999998         -1.6147383380475418E-026
 -0.22699999999999998         -3.2436937368701547E-026
 -0.22649999999999998         -5.9701209011279945E-026
 -0.22599999999999998         -1.0121595092086064E-025
 -0.22549999999999998         -1.5789679641532399E-025
 -0.22499999999999998         -2.2466578621800413E-025
 -0.22449999999999998         -2.8503324373052561E-025
 -0.22399999999999998         -3.0419164293423955E-025
 -0.22349999999999998         -2.2182181939516594E-025
 -0.22299999999999998          5.2910983999001111E-026
 -0.22249999999999998          6.4019114364312182E-025
 -0.22199999999999998          1.6768729487583474E-024
 -0.22150000000000000          3.2863085453120661E-024
 -0.22100000000000000          5.5255529392238732E-024
 -0.22050000000000000          8.3080108967753951E-024
 -0.22000000000000000          1.1305739923461321E-023
 -0.21950000000000000          1.3844933293795766E-023
 -0.21900000000000000          1.4819869131618500E-023
 -0.21850000000000000          1.2663020864826575E-023
 -0.21800000000000000          5.4188693625540466E-024
 -0.21750000000000000         -9.0278977487484077E-024
 -0.21700000000000000         -3.2527609731400942E-023
 -0.21650000000000000         -6.6026786864559324E-023
 -0.21600000000000000         -1.0874097955318454E-022
 -0.21550000000000000         -1.5722649124618116E-022
 -0.21500000000000000         -2.0451167218579349E-022
 -0.21450000000000000         -2.3952331339987039E-022
 -0.21400000000000000         -2.4710205788850969E-022
 -0.21350000000000000         -2.0892050849999061E-022
 -0.21299999999999999         -1.0557815850511486E-022
 -0.21249999999999999          7.9973027253525383E-023
 -0.21199999999999999          3.5772830140920210E-022
 -0.21149999999999999          7.2500305670547782E-022
 -0.21099999999999999          1.1605794339032551E-021
 -0.21049999999999999          1.6196867872190806E-021
 -0.20999999999999999          2.0311716805375447E-021
 -0.20949999999999999          2.2983645489344190E-021
 -0.20899999999999999          2.3050700433336404E-021
 -0.20849999999999999          1.9277096824314523E-021
 -0.20799999999999999          1.0539123128719114E-021
 -0.20749999999999999         -3.9323335303138940E-022
 -0.20699999999999999         -2.4273738263887556E-021
 -0.20649999999999999         -4.9710634640692452E-021
 -0.20599999999999999         -7.8327388179458430E-021
 -0.20549999999999999         -1.0694183546759078E-020
 -0.20499999999999999         -1.3114365385072919E-020
 -0.20449999999999999         -1.4554722707249288E-020
 -0.20399999999999999         -1.4429041337342379E-020
 -0.20349999999999999         -1.2178034090166971E-020
 -0.20299999999999999         -7.3646676823402019E-021
 -0.20249999999999999          2.1835351787800622E-022
 -0.20199999999999999          1.0442121257716283E-020
 -0.20149999999999998          2.2753050314342994E-020
 -0.20099999999999998          3.6121568558209964E-020
 -0.20049999999999998          4.9046879552461901E-020
 -0.19999999999999998          5.9633104720172871E-020
 -0.19949999999999998          6.5745833737620499E-020
 -0.19899999999999998          6.5247702987801651E-020
 -0.19849999999999998          5.6299418217567851E-020
 -0.19799999999999998          3.7699173238584781E-020
 -0.19749999999999998          9.2204586957128567E-021
 -0.19699999999999998         -2.8101803719089741E-020
 -0.19649999999999998         -7.1791806694695683E-020
 -0.19600000000000001         -1.1791289025942070E-019
 -0.19550000000000001         -1.6124932199077424E-019
 -0.19500000000000001         -1.9571245804430074E-019
 -0.19450000000000001         -2.1496636634648250E-019
 -0.19400000000000001         -2.1323452156243496E-019
 -0.19350000000000001         -1.8621342608247148E-019
 -0.19300000000000000         -1.3198588204184729E-019
 -0.19250000000000000         -5.1802024302419969E-020
 -0.19200000000000000          4.9415475757059505E-020
 -0.19150000000000000          1.6297762540782430E-019
 -0.19100000000000000          2.7685383550389501E-019
 -0.19050000000000000          3.7667057305067556E-019
 -0.19000000000000000          4.4726689696507898E-019
 -0.18950000000000000          4.7470597714832316E-019
 -0.18900000000000000          4.4854819973392362E-019
 -0.18850000000000000          3.6411107621997666E-019
 -0.18800000000000000          2.2437584308230583E-019
 -0.18750000000000000          4.1174456259952686E-020
 -0.18700000000000000         -1.6469038041429777E-019
 -0.18650000000000000         -3.6466526138099305E-019
 -0.18600000000000000         -5.2514750260059507E-019
 -0.18550000000000000         -6.1162603031814047E-019
 -0.18500000000000000         -5.9399627822400951E-019
 -0.18450000000000000         -4.5254865197138320E-019
 -0.18400000000000000         -1.8390376979116150E-019
 -0.18350000000000000          1.9400554500090343E-019
 -0.18300000000000000          6.3889688264430668E-019
 -0.18250000000000000          1.0840087156197436E-018
 -0.18200000000000000          1.4416746848500426E-018
 -0.18149999999999999          1.6110753806390383E-018
 -0.18099999999999999          1.4901756962840534E-018
 -0.18049999999999999          9.9127049861670316E-019
 -0.17999999999999999          5.8914019811574332E-020
 -0.17949999999999999         -1.3116445808936975E-018
 -0.17899999999999999         -3.0579492058317064E-018
 -0.17849999999999999         -5.0385560479978106E-018
 -0.17799999999999999         -7.0288845371080974E-018
 -0.17749999999999999         -8.7273526868367053E-018
 -0.17699999999999999         -9.7737775207469129E-018
 -0.17649999999999999         -9.7809483494771351E-018
 -0.17599999999999999         -8.3788259260017749E-018
 -0.17549999999999999         -5.2690825993199076E-018
 -0.17499999999999999         -2.8580778129144597E-019
 -0.17449999999999999          6.5435925609742620E-018
 -0.17399999999999999          1.4944817710783360E-017
 -0.17349999999999999          2.4358887470355464E-017
 -0.17299999999999999          3.3928817909667259E-017
 -0.17249999999999999          4.2518655128389473E-017
 -0.17199999999999999          4.8770896479649083E-017
 -0.17149999999999999          5.1205242700278340E-017
 -0.17099999999999999          4.8357680059009443E-017
 -0.17049999999999998          3.8954052627490209E-017
 -0.16999999999999998          2.2106924648626798E-017
 -0.16949999999999998         -2.4804044643168226E-018
 -0.16899999999999998         -3.4323495558418360E-017
 -0.16849999999999998         -7.2003967975262724E-017
 -0.16799999999999998         -1.1307950726337993E-016
 -0.16749999999999998         -1.5408083852438379E-016
 -0.16699999999999998         -1.9061600328253213E-016
 -0.16649999999999998         -2.1759539231601068E-016
 -0.16599999999999998         -2.2958160996881848E-016
 -0.16549999999999998         -2.2125648047228058E-016
 -0.16499999999999998         -1.8798396751294760E-016
 -0.16449999999999998         -1.2643410664247705E-016
 -0.16399999999999998         -3.5220308234936102E-017
 -0.16349999999999998          8.4508913898924973E-017
 -0.16299999999999998          2.2858907264309365E-016
 -0.16249999999999998          3.8953774694804391E-016
 -0.16199999999999998          5.5649514063191817E-016
 -0.16149999999999998          7.1546093727712571E-016
 -0.16099999999999998          8.4986309608931377E-016
 -0.16049999999999998          9.4147214455458971E-016
 -0.15999999999999998          9.7164388165226151E-016
 -0.15949999999999998          9.2284631356094127E-016
 -0.15899999999999997          7.8038823614565438E-016
 -0.15849999999999997          5.3424353216798850E-016
 -0.15799999999999997          1.8083274627196536E-016
 -0.15749999999999997         -2.7538819884426538E-016
 -0.15699999999999997         -8.2069376954515823E-016
 -0.15649999999999997         -1.4313644492691918E-015
 -0.15599999999999997         -2.0736094997119911E-015
 -0.15549999999999997         -2.7042458577335518E-015
 -0.15499999999999997         -3.2721920367794009E-015
 -0.15449999999999997         -3.7207929676230135E-015
 -0.15399999999999997         -3.9909210918648297E-015
 -0.15349999999999997         -4.0247452350310620E-015
 -0.15299999999999997         -3.7699877941665960E-015
 -0.15249999999999997         -3.1844497995974592E-015
 -0.15200000000000000         -2.2405287769132389E-015
 -0.15150000000000000         -9.2943845335206627E-016
 -0.15100000000000000          7.3517668791565362E-016
 -0.15049999999999999          2.7145267201308509E-015
 -0.14999999999999999          4.9431169911690141E-015
 -0.14949999999999999          7.3285570117314659E-015
 -0.14899999999999999          9.7528830443529418E-015
 -0.14849999999999999          1.2075453314954864E-014
 -0.14799999999999999          1.4137419499773898E-014
 -0.14749999999999999          1.5767655532476256E-014
 -0.14699999999999999          1.6789995500691990E-014
 -0.14649999999999999          1.7031525251535659E-014
 -0.14599999999999999          1.6331674443262161E-014
 -0.14549999999999999          1.4551744818890391E-014
 -0.14499999999999999          1.1584609580482259E-014
 -0.14449999999999999          7.3641916878224543E-015
 -0.14399999999999999          1.8744428311758248E-015
 -0.14349999999999999         -4.8425263229684087E-015
 -0.14299999999999999         -1.2679416605467387E-014
 -0.14249999999999999         -2.1458131292347894E-014
 -0.14199999999999999         -3.0925857306875887E-014
 -0.14149999999999999         -4.0753191159160693E-014
 -0.14099999999999999         -5.0534619213836104E-014
 -0.14049999999999999         -5.9791764367347205E-014
 -0.13999999999999999         -6.7979848909337920E-014
 -0.13949999999999999         -7.4497835201095541E-014
 -0.13899999999999998         -7.8702811683126900E-014
 -0.13849999999999998         -7.9928990130099381E-014
 -0.13799999999999998         -7.7511815596651573E-014
 -0.13749999999999998         -7.0817361848794780E-014
 -0.13699999999999998         -5.9277066491014024E-014
 -0.13649999999999998         -4.2427497469075745E-014
 -0.13599999999999998         -1.9954342879110500E-014
 -0.13550000000000001          8.2605626101884232E-015
 -0.13500000000000001          4.2090859470782574E-014
 -0.13450000000000001          8.1118488662323962E-014
 -0.13400000000000001          1.2459045568239541E-013
 -0.13350000000000001          1.7138306290624683E-013
 -0.13300000000000001          2.1997727532759026E-013
 -0.13250000000000001          2.6844935237420320E-013
 -0.13200000000000001          3.1448051085979090E-013
 -0.13150000000000001          3.5538951881179670E-013
 -0.13100000000000001          3.8819097133817315E-013
 -0.13050000000000000          4.0968134917482302E-013
 -0.13000000000000000          4.1655413385126294E-013
 -0.12950000000000000          4.0554281395717429E-013
 -0.12900000000000000          3.7358934305495306E-013
 -0.12850000000000000          3.1803406479527507E-013
 -0.12800000000000000          2.3682041028726120E-013
 -0.12750000000000000          1.2870634462716635E-013
 -0.12700000000000000         -6.5275395528532291E-015
 -0.12650000000000000         -1.6788450512596198E-013
 -0.12600000000000000         -3.5298521917914716E-013
 -0.12550000000000000         -5.5794068367157057E-013
 -0.12499999999999999         -7.7727684314951584E-013
 -0.12449999999999999         -1.0039228563046843E-012
 -0.12399999999999999         -1.2292721094514514E-012
 -0.12349999999999998         -1.4433231085991816E-012
 -0.12299999999999998         -1.6349048850838876E-012
 -0.12249999999999998         -1.7919883242220602E-012
 -0.12199999999999998         -1.9020776707151521E-012
 -0.12149999999999998         -1.9526773861050506E-012
 -0.12099999999999998         -1.9318212394342504E-012
 -0.12049999999999998         -1.8286487775409643E-012
 -0.12000000000000000         -1.6340095509298491E-012
 -0.11950000000000000         -1.3410725438131599E-012
 -0.11899999999999999         -9.4591717271497178E-013
 -0.11849999999999999         -4.4808013094192745E-013
 -0.11799999999999999          1.4896878218831344E-013
 -0.11749999999999999          8.3744724479681287E-013
 -0.11699999999999999          1.6049999870815235E-012
 -0.11649999999999999          2.4345809656461936E-012
 -0.11599999999999999          3.3044938313464556E-012
 -0.11549999999999999          4.1886047581762842E-012
 -0.11499999999999999          5.0567367133880214E-012
 -0.11449999999999999          5.8752486382929181E-012
 -0.11399999999999999          6.6077946066223081E-012
 -0.11349999999999999          7.2162584068002911E-012
 -0.11299999999999999          7.6618485861379426E-012
 -0.11249999999999999          7.9063309718629959E-012
 -0.11199999999999999          7.9133756838989378E-012
 -0.11149999999999999          7.6499917511796411E-012
 -0.11099999999999999          7.0880046623700288E-012
 -0.11049999999999999          6.2055451922893301E-012
 -0.10999999999999999          4.9884987633752598E-012
 -0.10949999999999999          3.4318771782726465E-012
 -0.10899999999999999          1.5410501650811592E-012
 -0.10849999999999999         -6.6720256706662151E-013
 -0.10799999999999998         -3.1638777969050791E-012
 -0.10749999999999998         -5.9072221940403846E-012
 -0.10699999999999998         -8.8425386804424910E-012
 -0.10649999999999998         -1.1902377521078034E-011
 -0.10599999999999998         -1.5007141362932686E-011
 -0.10549999999999998         -1.8066133658511951E-011
 -0.10499999999999998         -2.0979081319372206E-011
 -0.10449999999999998         -2.3638110566159831E-011
 -0.10399999999999998         -2.5930212838032318E-011
 -0.10349999999999998         -2.7740114025287532E-011
 -0.10299999999999998         -2.8953551362009833E-011
 -0.10249999999999998         -2.9460888589794010E-011
 -0.10199999999999998         -2.9160958370244572E-011
 -0.10149999999999998         -2.7965057353140921E-011
 -0.10099999999999998         -2.5800991551583330E-011
 -0.10049999999999998         -2.2616993347601699E-011
  -9.9999999999999978E-002    -1.8385416453159387E-011
  -9.9499999999999977E-002    -1.3106055303524489E-011
  -9.8999999999999977E-002    -6.8089197474696661E-012
  -9.8499999999999976E-002     4.4363728727951635E-013
  -9.7999999999999976E-002     8.5556058765368093E-012
  -9.7499999999999976E-002     1.7396903362332239E-011
  -9.6999999999999975E-002     2.6803941011177557E-011
  -9.6499999999999975E-002     3.6581251916523172E-011
  -9.5999999999999974E-002     4.6504189388230088E-011
  -9.5500000000000002E-002     5.6322679159448441E-011
  -9.5000000000000001E-002     6.5765989876176434E-011
  -9.4500000000000001E-002     7.4548443806943254E-011
  -9.4000000000000000E-002     8.2375883891927515E-011
  -9.3500000000000000E-002     8.8952886723170366E-011
  -9.2999999999999999E-002     9.3990336347271608E-011
  -9.2499999999999999E-002     9.7213320726652341E-011
  -9.1999999999999998E-002     9.8369069834181033E-011
  -9.1499999999999998E-002     9.7234720275451991E-011
  -9.0999999999999998E-002     9.3624656638535697E-011
  -9.0499999999999997E-002     8.7397269976641212E-011
  -8.9999999999999997E-002     7.8460904440191825E-011
  -8.9499999999999996E-002     6.6778832463754156E-011
  -8.8999999999999996E-002     5.2373112791048726E-011
  -8.8499999999999995E-002     3.5327227254633442E-011
  -8.7999999999999995E-002     1.5787442533832241E-011
  -8.7499999999999994E-002    -6.0371334667519427E-012
  -8.6999999999999994E-002    -2.9875851792482422E-011
  -8.6499999999999994E-002    -5.5399029114111542E-011
  -8.5999999999999993E-002    -8.2221736363852216E-011
  -8.5499999999999993E-002    -1.0990870019655929E-010
  -8.4999999999999992E-002    -1.3798018283495139E-010
  -8.4499999999999992E-002    -1.6591873708282634E-010
  -8.3999999999999991E-002    -1.9317675237218168E-010
  -8.3499999999999991E-002    -2.1918467041359690E-010
  -8.2999999999999990E-002    -2.4335955473020476E-010
  -8.2499999999999990E-002    -2.6511418060870540E-010
  -8.1999999999999990E-002    -2.8386620831710729E-010
  -8.1499999999999989E-002    -2.9904764775601222E-010
  -8.0999999999999989E-002    -3.1011423984317332E-010
  -8.0499999999999988E-002    -3.1655475463132632E-010
  -7.9999999999999988E-002    -3.1790040044832324E-010
  -7.9499999999999987E-002    -3.1373337261442202E-010
  -7.8999999999999987E-002    -3.0369590175993721E-010
  -7.8499999999999986E-002    -2.8749827518659288E-010
  -7.7999999999999986E-002    -2.6492663618427059E-010
  -7.7499999999999986E-002    -2.3585020048066951E-010
  -7.6999999999999985E-002    -2.0022795921281755E-010
  -7.6499999999999985E-002    -1.5811439657564819E-010
  -7.5999999999999984E-002    -1.0966472174800401E-010
  -7.5499999999999984E-002    -5.5139063454001658E-011
  -7.4999999999999983E-002     5.0942340623638671E-012
  -7.4499999999999983E-002     7.0556303854996116E-011
  -7.3999999999999982E-002     1.4065656972483964E-010
  -7.3499999999999982E-002     2.1469261091144887E-010
  -7.2999999999999982E-002     2.9185129313269442E-010
  -7.2499999999999981E-002     3.7121122842265208E-010
  -7.1999999999999981E-002     4.5174644580647794E-010
  -7.1499999999999980E-002     5.3233123464835330E-010
  -7.0999999999999980E-002     6.1174665333396661E-010
  -7.0499999999999979E-002     6.8868871716531999E-010
  -6.9999999999999979E-002     7.6177719687819945E-010
  -6.9499999999999978E-002     8.2956702618375289E-010
  -6.8999999999999978E-002     8.9056101382212205E-010
  -6.8499999999999978E-002     9.4322394339485527E-010
  -6.7999999999999977E-002     9.8599861608761330E-010
  -6.7499999999999977E-002     1.0173242248612269E-009
  -6.6999999999999976E-002     1.0356561164215350E-009
  -6.6499999999999976E-002     1.0394874960795164E-009
  -6.5999999999999975E-002     1.0273738526578313E-009
  -6.5499999999999975E-002     9.9795816055348041E-010
  -6.4999999999999974E-002     9.4999841326881551E-010
  -6.4499999999999974E-002     8.8239682227708727E-010
  -6.4000000000000001E-002     7.9423129184519325E-010
  -6.3500000000000001E-002     6.8478611670030887E-010
  -6.3000000000000000E-002     5.5358456707566006E-010
  -6.2500000000000000E-002     4.0042208437895965E-010
  -6.2000000000000000E-002     2.2539757560391394E-010
  -6.1499999999999999E-002     2.8944402430397531E-011
  -6.0999999999999999E-002    -1.8814036439884774E-010
  -6.0499999999999998E-002    -4.2466774541338737E-010
  -5.9999999999999998E-002    -6.7903394018742347E-010
  -5.9499999999999997E-002    -9.4920171722634450E-010
  -5.8999999999999997E-002    -1.2326838438880827E-009
  -5.8499999999999996E-002    -1.5265336772429805E-009
  -5.7999999999999996E-002    -1.8273401680701795E-009
  -5.7499999999999996E-002    -2.1312289710806454E-009
  -5.6999999999999995E-002    -2.4338706605675497E-009
  -5.6499999999999995E-002    -2.7304940530825661E-009
  -5.5999999999999994E-002    -3.0159099662085964E-009
  -5.5499999999999994E-002    -3.2845339781317762E-009
  -5.4999999999999993E-002    -3.5304170697969539E-009
  -5.4499999999999993E-002    -3.7472842606689483E-009
  -5.3999999999999992E-002    -3.9285730224491999E-009
  -5.3499999999999992E-002    -4.0674779100413616E-009
  -5.2999999999999992E-002    -4.1569951925168880E-009
  -5.2499999999999991E-002    -4.1899688163482551E-009
  -5.1999999999999991E-002    -4.1591410315788835E-009
  -5.1499999999999990E-002    -4.0571905834951849E-009
  -5.0999999999999990E-002    -3.8767820065288561E-009
  -5.0499999999999989E-002    -3.6106058143303699E-009
  -4.9999999999999989E-002    -3.2514195780208865E-009
  -4.9499999999999988E-002    -2.7920759038124743E-009
  -4.8999999999999988E-002    -2.2255495224499100E-009
  -4.8499999999999988E-002    -1.5449712620352329E-009
  -4.7999999999999987E-002    -7.4363681878963916E-010
  -4.7499999999999987E-002     1.8498552689649728E-010
  -4.6999999999999986E-002     1.2472425314768998E-009
  -4.6499999999999986E-002     2.4492901040673587E-009
  -4.5999999999999985E-002     3.7971181754414829E-009
  -4.5499999999999985E-002     5.2965432040252836E-009
  -4.4999999999999984E-002     6.9532353208501263E-009
  -4.4499999999999984E-002     8.7727674014104196E-009
  -4.3999999999999984E-002     1.0760597746184430E-008
  -4.3499999999999983E-002     1.2922115821822899E-008
  -4.2999999999999983E-002     1.5262724417652862E-008
  -4.2499999999999982E-002     1.7787865402851821E-008
  -4.1999999999999982E-002     2.0503067688082410E-008
  -4.1499999999999981E-002     2.3414003180732834E-008
  -4.0999999999999981E-002     2.6526533858373114E-008
  -4.0499999999999980E-002     2.9846844995518040E-008
  -3.9999999999999980E-002     3.3381478914407126E-008
  -3.9499999999999980E-002     3.7137407815635015E-008
  -3.8999999999999979E-002     4.1122152794059730E-008
  -3.8499999999999979E-002     4.5343877985715153E-008
  -3.7999999999999978E-002     4.9811504254648753E-008
  -3.7499999999999978E-002     5.4534801563477231E-008
  -3.6999999999999977E-002     5.9524492002083207E-008
  -3.6499999999999977E-002     6.4792438081440196E-008
  -3.5999999999999976E-002     7.0351703129745147E-008
  -3.5499999999999976E-002     7.6216707611820311E-008
  -3.4999999999999976E-002     8.2403389001228788E-008
  -3.4499999999999975E-002     8.8929333230680641E-008
  -3.3999999999999975E-002     9.5813973643998906E-008
  -3.3499999999999974E-002     1.0307867626124789E-007
  -3.2999999999999974E-002     1.1074696715240862E-007
  -3.2499999999999973E-002     1.1884464612421652E-007
  -3.1999999999999973E-002     1.2739998567212751E-007
  -3.1500000000000000E-002     1.3644394414313865E-007
  -3.1000000000000000E-002     1.4601027942262590E-007
  -3.0499999999999999E-002     1.5613568393746391E-007
  -2.9999999999999999E-002     1.6686006176769297E-007
  -2.9499999999999998E-002     1.7822681286361330E-007
  -2.8999999999999998E-002     1.9028270514809265E-007
  -2.8499999999999998E-002     2.0307840031819069E-007
  -2.7999999999999997E-002     2.1666846805601381E-007
  -2.7499999999999997E-002     2.3111142866127921E-007
  -2.6999999999999996E-002     2.4647022200952051E-007
  -2.6499999999999996E-002     2.6281222176294250E-007
  -2.5999999999999995E-002     2.8020943432238710E-007
  -2.5499999999999995E-002     2.9873896778553899E-007
  -2.4999999999999994E-002     3.1848293247094261E-007
  -2.4499999999999994E-002     3.3952832723116444E-007
  -2.3999999999999994E-002     3.6196786368236644E-007
  -2.3499999999999993E-002     3.8589988093917782E-007
  -2.2999999999999993E-002     4.1142857298837043E-007
  -2.2499999999999992E-002     4.3866441501450026E-007
  -2.1999999999999992E-002     4.6772410655648855E-007
  -2.1499999999999991E-002     4.9873113994181040E-007
  -2.0999999999999991E-002     5.3181531711743446E-007
  -2.0499999999999990E-002     5.6711434126555105E-007
  -1.9999999999999990E-002     6.0477395891211927E-007
  -1.9499999999999990E-002     6.4494707885387470E-007
  -1.8999999999999989E-002     6.8779559114773292E-007
  -1.8499999999999989E-002     7.3349002605027636E-007
  -1.7999999999999988E-002     7.8221040666903718E-007
  -1.7499999999999988E-002     8.3414613527565962E-007
  -1.6999999999999987E-002     8.8949792598214117E-007
  -1.6499999999999987E-002     9.4847752052373835E-007
  -1.5999999999999986E-002     1.0113074040418724E-006
  -1.5499999999999986E-002     1.0782233630379778E-006
  -1.4999999999999986E-002     1.1494746559037594E-006
  -1.4499999999999985E-002     1.2253240129211918E-006
  -1.3999999999999985E-002     1.3060484889138024E-006
  -1.3499999999999984E-002     1.3919413959229132E-006
  -1.2999999999999984E-002     1.4833132127023418E-006
  -1.2499999999999983E-002     1.5804920394657529E-006
  -1.1999999999999983E-002     1.6838232568261446E-006
  -1.1499999999999982E-002     1.7936724816536298E-006
  -1.0999999999999982E-002     1.9104272723780014E-006
  -1.0499999999999982E-002     2.0344973563624080E-006
  -9.9999999999999811E-003     2.1663149709638674E-006
  -9.4999999999999807E-003     2.3063366825226694E-006
  -8.9999999999999802E-003     2.4550463422201574E-006
  -8.4999999999999798E-003     2.6129569050681312E-006
  -7.9999999999999793E-003     2.7806083835457684E-006
  -7.4999999999999789E-003     2.9585698939627036E-006
  -6.9999999999999785E-003     3.1474455681745894E-006
  -6.4999999999999780E-003     3.3478752357041230E-006
  -5.9999999999999776E-003     3.5605330594989937E-006
  -5.4999999999999771E-003     3.7861293549212860E-006
  -4.9999999999999767E-003     4.0254162740893662E-006
  -4.4999999999999762E-003     4.2791907617356628E-006
  -3.9999999999999758E-003     4.5482934183382895E-006
  -3.4999999999999754E-003     4.8336069085053168E-006
  -2.9999999999999749E-003     5.1360666475375183E-006
  -2.4999999999999745E-003     5.4566626204177737E-006
  -1.9999999999999740E-003     5.7964357438322622E-006
  -1.4999999999999736E-003     6.1564910538436379E-006
  -9.9999999999997313E-004     6.5379890656913631E-006
  -4.9999999999997269E-004     6.9421535044966731E-006
   0.0000000000000000          7.3702767622307874E-006
   5.0000000000000044E-004     7.8237217167043127E-006
   1.0000000000000009E-003     8.3039276432828046E-006
   1.5000000000000013E-003     8.8124124886235222E-006
   2.0000000000000018E-003     9.3507742349174805E-006
   2.5000000000000022E-003     9.9206890809000470E-006
   3.0000000000000027E-003     1.0523935088713188E-005
   3.5000000000000031E-003     1.1162373994011432E-005
   4.0000000000000036E-003     1.1837977581308223E-005
   4.5000000000000040E-003     1.2552814951050095E-005
   5.0000000000000044E-003     1.3309059795574285E-005
   5.5000000000000049E-003     1.4109011317486875E-005
   6.0000000000000053E-003     1.4955085134715773E-005
   6.5000000000000058E-003     1.5849813280510716E-005
   7.0000000000000062E-003     1.6795864212326705E-005
   7.5000000000000067E-003     1.7796037354855798E-005
   8.0000000000000071E-003     1.8853288565878756E-005
   8.5000000000000075E-003     1.9970724679296836E-005
   9.0000000000000080E-003     2.1151608962099999E-005
   9.5000000000000084E-003     2.2399368390324526E-005
   1.0000000000000009E-002     2.3717602744000033E-005
   1.0500000000000009E-002     2.5110104616032913E-005
   1.1000000000000010E-002     2.6580850317259319E-005
   1.1500000000000010E-002     2.8134010790381581E-005
   1.2000000000000011E-002     2.9773971618851647E-005
   1.2500000000000011E-002     3.1505333026871085E-005
   1.3000000000000012E-002     3.3332915336359292E-005
   1.3500000000000012E-002     3.5261793527752161E-005
   1.4000000000000012E-002     3.7297293602023274E-005
   1.4500000000000013E-002     3.9444985304726288E-005
   1.5000000000000013E-002     4.1710714867804199E-005
   1.5500000000000014E-002     4.4100641389377415E-005
   1.6000000000000014E-002     4.6621218643849716E-005
   1.6500000000000015E-002     4.9279213271802291E-005
   1.7000000000000015E-002     5.2081704779993743E-005
   1.7500000000000016E-002     5.5036114645190537E-005
   1.8000000000000016E-002     5.8150239055976272E-005
   1.8500000000000016E-002     6.1432248912751675E-005
   1.9000000000000017E-002     6.4890686189755797E-005
   1.9500000000000017E-002     6.8534551246557385E-005
   2.0000000000000018E-002     7.2373208240605891E-005
   2.0500000000000018E-002     7.6416494266595691E-005
   2.1000000000000019E-002     8.0674719356466085E-005
   2.1500000000000019E-002     8.5158673755358905E-005
   2.2000000000000020E-002     8.9879627921618521E-005
   2.2500000000000020E-002     9.4849412562325597E-005
   2.3000000000000020E-002     1.0008041135733947E-004
   2.3500000000000021E-002     1.0558561916695908E-004
   2.4000000000000021E-002     1.1137856927234679E-004
   2.4500000000000022E-002     1.1747336247935891E-004
   2.5000000000000022E-002     1.2388483446557075E-004
   2.5500000000000023E-002     1.3062855578027666E-004
   2.6000000000000023E-002     1.3772066449746490E-004
   2.6500000000000024E-002     1.4517801173496991E-004
   2.7000000000000024E-002     1.5301839448511600E-004
   2.7500000000000024E-002     1.6126035188790411E-004
   2.8000000000000025E-002     1.6992320888675749E-004
   2.8500000000000025E-002     1.7902703257277608E-004
   2.9000000000000026E-002     1.8859299598261714E-004
   2.9500000000000026E-002     1.9864308706019074E-004
   3.0000000000000027E-002     2.0920019596815109E-004
   3.0500000000000027E-002     2.2028824605513364E-004
   3.1000000000000028E-002     2.3193232482299209E-004
   3.1500000000000028E-002     2.4415864027105272E-004
   3.2000000000000028E-002     2.5699427351355553E-004