 -0.23999999999999999          0.0000000000000000     
 -0.23949999999999999          0.0000000000000000     
 -0.23899999999999999          0.0000000000000000     
 -0.23849999999999999          0.0000000000000000     
 -0.23799999999999999         -7.2117568896292196E-011
 -0.23749999999999999         -5.7267895496537001E-010
 -0.23699999999999999         -2.4481476933383846E-009
 -0.23649999999999999         -7.4051053711110212E-009
 -0.23599999999999999         -1.7567269601043036E-008
 -0.23549999999999999         -3.4261122765400052E-008
 -0.23499999999999999         -5.5845388113687015E-008
 -0.23449999999999999         -7.5017727858137463E-008
 -0.23399999999999999         -7.6654522635068333E-008
 -0.23349999999999999         -3.7716799503352126E-008
 -0.23299999999999998          6.9202630449299252E-008
 -0.23249999999999998          2.6773192117575770E-007
 -0.23199999999999998          5.6533455989590062E-007
 -0.23149999999999998          9.3887129825336596E-007
 -0.23099999999999998          1.3221633064498165E-006
 -0.23049999999999998          1.6008914979738659E-006
 -0.22999999999999998          1.6202213794868008E-006
 -0.22949999999999998          1.2088946760557612E-006
 -0.22899999999999998          2.2014025365603742E-007
 -0.22849999999999998         -1.4150057596933298E-006
 -0.22799999999999998         -3.6315175480395094E-006
 -0.22749999999999998         -6.1851635673965175E-006
 -0.22699999999999998         -8.6340469100130604E-006
 -0.22649999999999998         -1.0361262328502546E-005
 -0.22599999999999998         -1.0647583798848583E-005
 -0.22549999999999998         -8.7939949944093086E-006
 -0.22499999999999998         -4.2823519928193174E-006
 -0.22449999999999998          3.0494207318387548E-006
 -0.22399999999999998          1.2850792313575592E-005
 -0.22349999999999998          2.4158810014610634E-005
 -0.22299999999999998          3.5390993688240509E-005
 -0.22249999999999998          4.4457137545012379E-005
 -0.22199999999999998          4.8999092686636581E-005
 -0.22150000000000000          4.6745162238128985E-005
 -0.22100000000000000          3.5941245920088120E-005
 -0.22050000000000000          1.5798880404992907E-005
 -0.22000000000000000         -1.3115423358765070E-005
 -0.21950000000000000         -4.8630125971117435E-005
 -0.21900000000000000         -8.6930535766479815E-005
 -0.21850000000000000         -1.2278366582056048E-004
 -0.21800000000000000         -1.5004315861587067E-004
 -0.21750000000000000         -1.6240927931876264E-004
 -0.21700000000000000         -1.5437341382745795E-004
 -0.21650000000000000         -1.2223461858350276E-004
 -0.21600000000000000         -6.5044676449777346E-005
 -0.21550000000000000          1.4676068474862560E-005
 -0.21500000000000000          1.1060299244651235E-004
 -0.21450000000000000          2.1277041203433372E-004
 -0.21400000000000000          3.0829989282892722E-004
 -0.21350000000000000          3.8268569590456484E-004
 -0.21299999999999999          4.2154763552884568E-004
 -0.21249999999999999          4.1267765327038589E-004
 -0.21199999999999999          3.4813559367583664E-004
 -0.21149999999999999          2.2610355852473082E-004
 -0.21099999999999999          5.2196536792415083E-005
 -0.21049999999999999         -1.6004147807926111E-004
 -0.20999999999999999         -3.8965073358644166E-004
 -0.20949999999999999         -6.0985947886611118E-004
 -0.20899999999999999         -7.9071496679015833E-004
 -0.20849999999999999         -9.0252640550674479E-004
 -0.20799999999999999         -9.1976222794498772E-004
 -0.20749999999999999         -8.2493323916096916E-004
 -0.20699999999999999         -6.1194456312172883E-004
 -0.20649999999999999         -2.8840760670362177E-004
 -0.20599999999999999          1.2350725861151607E-004
 -0.20549999999999999          5.8793616983809460E-004
 -0.20499999999999999          1.0579672502736566E-003
 -0.20449999999999999          1.4798907993816373E-003
 -0.20399999999999999          1.7986591739946995E-003
 -0.20349999999999999          1.9639844607611673E-003
 -0.20299999999999999          1.9363859062581056E-003
 -0.20249999999999999          1.6924832155054215E-003
 -0.20199999999999999          1.2288948158608601E-003
 -0.20149999999999998          5.6426328145518431E-004
 -0.20099999999999998         -2.6086030746793080E-004
 -0.20049999999999998         -1.1862923499738704E-003
 -0.19999999999999998         -2.1364366177480474E-003
 -0.19949999999999998         -3.0260304144991181E-003
 -0.19899999999999998         -3.7668742227517991E-003
 -0.19849999999999998         -4.2749321158848221E-003
 -0.19799999999999998         -4.4772302135834760E-003
 -0.19749999999999998         -4.3180425198135952E-003
 -0.19699999999999998         -3.7639791072066500E-003
 -0.19649999999999998         -2.8077219885701537E-003
 -0.19600000000000001         -1.4702687849363523E-003
 -0.19550000000000001          1.9836412975950558E-004
 -0.19500000000000001          2.1199669012461437E-003
 -0.19450000000000001          4.1904221842148396E-003
 -0.19400000000000001          6.2833629827707934E-003
 -0.19350000000000001          8.2550519718557966E-003
 -0.19300000000000000          9.9502401597920710E-003
 -0.19250000000000000          1.1208714264321316E-002
 -0.19200000000000000          1.1872052946431224E-002
 -0.19150000000000000          1.1790084475435128E-002
 -0.19100000000000000          1.0826427889812387E-002
 -0.19050000000000000          8.8625551965252208E-003
 -0.19000000000000000          5.7999314630014804E-003
 -0.18950000000000000          1.5600275643620435E-003
 -0.18900000000000000         -3.9177095296620591E-003
 -0.18850000000000000         -1.0679428302574956E-002
 -0.18800000000000000         -1.8761230091344207E-002
 -0.18750000000000000         -2.8193251261366292E-002
 -0.18700000000000000         -3.9002418533272853E-002
 -0.18650000000000000         -5.1212927321389802E-002
 -0.18600000000000000         -6.4843876206335443E-002
 -0.18550000000000000         -7.9904020164595649E-002
 -0.18500000000000000         -9.6384289504306608E-002
 -0.18450000000000000        -0.11424925879773989     
 -0.18400000000000000        -0.13342915412828008     
 -0.18350000000000000        -0.15381456858055736     
 -0.18300000000000000        -0.17525519069461262     
 -0.18250000000000000        -0.19756424299689326     
 -0.18200000000000000        -0.22052886388886989     
 -0.18149999999999999        -0.24392585442230286     
 -0.18099999999999999        -0.26754173178336887     
 -0.18049999999999999        -0.29119393122467008     
 -0.17999999999999999        -0.31475153114734189     
 -0.17949999999999999        -0.33815139822091844     
 -0.17899999999999999        -0.36140848925651031     
 -0.17849999999999999        -0.38461822825384545     
 -0.17799999999999999        -0.40795059121932004     
 -0.17749999999999999        -0.43163811572168342     
 -0.17699999999999999        -0.45595822986587159     
 -0.17649999999999999        -0.48121488595157136     
 -0.17599999999999999        -0.50772184093182993     
 -0.17549999999999999        -0.53578969547104882     
 -0.17499999999999999        -0.56572087076483968     
 -0.17449999999999999        -0.59781045381714604     
 -0.17399999999999999        -0.63235375969660912     
 -0.17349999999999999        -0.66965813682803788     
 -0.17299999999999999        -0.71005378156124388     
 -0.17249999999999999        -0.75390338571112903     
 -0.17199999999999999        -0.80160284416927718     
 -0.17149999999999999        -0.85357538368813934     
 -0.17099999999999999        -0.91025388878321689     
 -0.17049999999999998        -0.97205934082854895     
 -0.16999999999999998         -1.0393714643955965     
 -0.16949999999999998         -1.1125003693365316     
 -0.16899999999999998         -1.1916655529838434     
 -0.16849999999999998         -1.2769826078644624     
 -0.16799999999999998         -1.3684674782668171     
 -0.16749999999999998         -1.4660533230094166     
 -0.16699999999999998         -1.5696263456720096     
 -0.16649999999999998         -1.6790706935962247     
 -0.16599999999999998         -1.7943233915442700     
 -0.16549999999999998         -1.9154235498178576     
 -0.16499999999999998         -2.0425618286164222     
 -0.16449999999999998         -2.1761108508187510     
 -0.16399999999999998         -2.3166354792176325     
 -0.16349999999999998         -2.4648886155747176     
 -0.16299999999999998         -2.6217798404760688     
 -0.16249999999999998         -2.7883315528749772     
 -0.16199999999999998         -2.9656272631573213     
 -0.16149999999999998         -3.1547480155609300     
 -0.16099999999999998         -3.3567230712827691     
 -0.16049999999999998         -3.5724912516549985     
 -0.15999999999999998         -3.8028792839265222     
 -0.15949999999999998         -4.0486043664810731     
 -0.15899999999999997         -4.3102988879069493     
 -0.15849999999999997         -4.5885537809375192     
 -0.15799999999999997         -4.8839751012151806     
 -0.15749999999999997         -5.1972489630607033     
 -0.15699999999999997         -5.5292074478083082     
 -0.15649999999999997         -5.8808811192260935     
 -0.15599999999999997         -6.2535359646699611     
 -0.15549999999999997         -6.6486813550863770     
 -0.15499999999999997         -7.0680812213714654     
 -0.15449999999999997         -7.5137030686262918     
 -0.15399999999999997         -7.9876835457769726     
 -0.15349999999999997         -8.4922580629593583     
 -0.15299999999999997         -9.0296962678385153     
 -0.15249999999999997         -9.6022456762032977     
 -0.15200000000000000         -10.212078706981025     
 -0.15150000000000000         -10.861266470078210     
 -0.15100000000000000         -11.551771803536470     
 -0.15049999999999999         -12.285488791649826     
 -0.14999999999999999         -13.064279636475417     
 -0.14949999999999999         -13.890057772897570     
 -0.14899999999999999         -14.764854349143761     
 -0.14849999999999999         -15.690933855280647     
 -0.14799999999999999         -16.670838724424442     
 -0.14749999999999999         -17.707478897163732     
 -0.14699999999999999         -18.804160220350592     
 -0.14649999999999999         -19.964586578638119     
 -0.14599999999999999         -21.192855737847911     
 -0.14549999999999999         -22.493401797472359     
 -0.14499999999999999         -23.870947160484889     
 -0.14449999999999999         -25.330422199566026     
 -0.14399999999999999         -26.876908559580524     
 -0.14349999999999999         -28.515607013438327     
 -0.14299999999999999         -30.251776069981332     
 -0.14249999999999999         -32.090747273574785     
 -0.14199999999999999         -34.037991835583050     
 -0.14149999999999999         -36.099095010654615     
 -0.14099999999999999         -38.279922632595714     
 -0.14049999999999999         -40.586598536168466     
 -0.13999999999999999         -43.025638554582223     
 -0.13949999999999999         -45.604012289033903     
 -0.13899999999999998         -48.329135275631955     
 -0.13849999999999998         -51.208943611404933     
 -0.13799999999999998         -54.251838690830112     
 -0.13749999999999998         -57.466746582444777     
 -0.13699999999999998         -60.863026733460615     
 -0.13649999999999998         -64.450512981701479     
 -0.13599999999999998         -68.239536350551560     
 -0.13550000000000001         -72.240863276650046     
 -0.13500000000000001         -76.465834620059070     
 -0.13450000000000001         -80.926312219327514     
 -0.13400000000000001         -85.634819499906769     
 -0.13350000000000001         -90.604710400255428     
 -0.13300000000000001         -95.849979728096827     
 -0.13250000000000001         -101.38556611051780     
 -0.13200000000000001         -107.22715803950308     
 -0.13150000000000001         -113.39129906510158     
 -0.13100000000000001         -119.89541548299579     
 -0.13050000000000000         -126.75773259468340     
 -0.13000000000000000         -133.99716640617862     
 -0.12950000000000000         -141.63324504230016     
 -0.12900000000000000         -149.68640128978078     
 -0.12850000000000000         -158.17767209656159     
 -0.12800000000000000         -167.12895014961904     
 -0.12750000000000000         -176.56289465123052     
 -0.12700000000000000         -186.50330934874393     
 -0.12650000000000000         -196.97496071318386     
 -0.12600000000000000         -208.00406525332102     
 -0.12550000000000000         -219.61801499163425     
 -0.12499999999999999         -231.84606461848435     
 -0.12449999999999999         -244.71881031245732     
 -0.12399999999999999         -258.26867667051334     
 -0.12349999999999998         -272.52976348900779     
 -0.12299999999999998         -287.53793556080990     
 -0.12249999999999998         -303.33087351145838     
 -0.12199999999999998         -319.94776844598977     
 -0.12149999999999998         -337.42979951255012     
 -0.12099999999999998         -355.81972361894640     
 -0.12049999999999998         -375.16209241553474     
 -0.12000000000000000         -395.50332448636016     
 -0.11950000000000000         -416.89140984319397     
 -0.11899999999999999         -439.37700653858161     
 -0.11849999999999999         -463.01216580415479     
 -0.11799999999999999         -487.85179670520722     
 -0.11749999999999999         -513.95263803239538     
 -0.11699999999999999         -541.37425390368844     
 -0.11649999999999999         -570.17922753266987     
 -0.11599999999999999         -600.43241485593364     
 -0.11549999999999999         -632.20195406515006     
 -0.11499999999999999         -665.55879887284186     
 -0.11449999999999999         -700.57774232367535     
 -0.11399999999999999         -737.33631099270872     
 -0.11349999999999999         -775.91566612664508     
 -0.11299999999999999         -816.40035511867416     
 -0.11249999999999999         -858.87898111008417     
 -0.11199999999999999         -903.44318775830573     
 -0.11149999999999999         -950.18914905475299     
 -0.11099999999999999         -999.21661705044312     
 -0.11049999999999999         -1050.6292497500767     
 -0.10999999999999999         -1104.5348625403458     
 -0.10949999999999999         -1161.0451726937338     
 -0.10899999999999999         -1220.2769836457435     
 -0.10849999999999999         -1282.3519512386763     
 -0.10799999999999998         -1347.3954446249218     
 -0.10749999999999998         -1415.5396785055143     
 -0.10699999999999998         -1486.9202106038731     
 -0.10649999999999998         -1561.6800020853771     
 -0.10599999999999998         -1639.9664046390335     
 -0.10549999999999998         -1721.9339993233755     
 -0.10499999999999998         -1807.7429238349507     
 -0.10449999999999998         -1897.5613821080051     
 -0.10399999999999998         -1991.5608739323052     
 -0.10349999999999998         -2089.9237159495610     
 -0.10299999999999998         -2192.8359498336290     
 -0.10249999999999998         -2300.4904300701728     
 -0.10199999999999998         -2413.0910213750353     
 -0.10149999999999998         -2530.8458401789444     
 -0.10099999999999998         -2653.9733871921230     
 -0.10049999999999998         -2782.6983114317118     
  -9.9999999999999978E-002    -2917.2531656116612     
  -9.9499999999999977E-002    -3057.8830662390792     
  -9.8999999999999977E-002    -3204.8399182535754     
  -9.8499999999999976E-002    -3358.3830036436771     
  -9.7999999999999976E-002    -3518.7845466359931     
  -9.7499999999999976E-002    -3686.3241570509567     
  -9.6999999999999975E-002    -3861.2913506371478     
  -9.6499999999999975E-002    -4043.9878968247695     
  -9.5999999999999974E-002    -4234.7248356313366     
  -9.5500000000000002E-002    -4433.8235404424222     
  -9.5000000000000001E-002    -4641.6228000258589     
  -9.4500000000000001E-002    -4858.4638506747424     
  -9.4000000000000000E-002    -5084.7087794944182     
  -9.3500000000000000E-002    -5320.7249070921971     
  -9.2999999999999999E-002    -5566.8970817238314     
  -9.2499999999999999E-002    -5823.6245816699011     
  -9.1999999999999998E-002    -6091.3156322938230     
  -9.1499999999999998E-002    -6370.3982151267637     
  -9.0999999999999998E-002    -6661.3055154108251     
  -9.0499999999999997E-002    -6964.4986438651176     
  -8.9999999999999997E-002    -7280.4420202678839     
  -8.9499999999999996E-002    -7609.6248792586848     
  -8.8999999999999996E-002    -7952.5396640656982     
  -8.8499999999999995E-002    -8309.7115415067747     
  -8.7999999999999995E-002    -8681.6652381240310     
  -8.7499999999999994E-002    -9068.9558987469809     
  -8.6999999999999994E-002    -9472.1473342229765     
  -8.6499999999999994E-002    -9891.8334927734250     
  -8.5999999999999993E-002    -10328.611926398737     
  -8.5499999999999993E-002    -10783.108130264740     
  -8.4999999999999992E-002    -11255.961988808320     
  -8.4499999999999992E-002    -11747.838999046078     
  -8.3999999999999991E-002    -12259.424309169337     
  -8.3499999999999991E-002    -12791.428635882579     
  -8.2999999999999990E-002    -13344.566593031646     
  -8.2499999999999990E-002    -13919.589417753112     
  -8.1999999999999990E-002    -14517.268363095525     
  -8.1499999999999989E-002    -15138.388057578009     
  -8.0999999999999989E-002    -15783.762495834148     
  -8.0499999999999988E-002    -16454.241700058621     
  -7.9999999999999988E-002    -17150.668392202140     
  -7.9499999999999987E-002    -17873.936398797410     
  -7.8999999999999987E-002    -18624.955772185047     
  -7.8499999999999986E-002    -19404.658150573468     
  -7.7999999999999986E-002    -20214.003371345440     
  -7.7499999999999986E-002    -21053.992955571815     
  -7.6999999999999985E-002    -21925.644968020028     
  -7.6499999999999985E-002    -22829.978480042111     
  -7.5999999999999984E-002    -23768.099386276026     
  -7.5499999999999984E-002    -24741.086661307905     
  -7.4999999999999983E-002    -25750.057479942632     
  -7.4499999999999983E-002    -26796.192204526145     
  -7.3999999999999982E-002    -27880.640461600316     
  -7.3499999999999982E-002    -29004.641942343027     
  -7.2999999999999982E-002    -30169.455789743235     
  -7.2499999999999981E-002    -31376.308424921175     
  -7.1999999999999981E-002    -32626.555757049384     
  -7.1499999999999980E-002    -33921.483834200764     
  -7.0999999999999980E-002    -35262.520057359303     
  -7.0499999999999979E-002    -36651.011677917893     
  -6.9999999999999979E-002    -38088.427891862208     
  -6.9499999999999978E-002    -39576.247969547403     
  -6.8999999999999978E-002    -41115.963177999307     
  -6.8499999999999978E-002    -42709.093839404879     
  -6.7999999999999977E-002    -44357.234458307154     
  -6.7499999999999977E-002    -46061.956718895417     
  -6.6999999999999976E-002    -47824.922138425492     
  -6.6499999999999976E-002    -49647.738780620137     
  -6.5999999999999975E-002    -51532.138205603005     
  -6.5499999999999975E-002    -53479.862727830150     
  -6.4999999999999974E-002    -55492.672815261234     
  -6.4499999999999974E-002    -57572.395860210447     
  -6.4000000000000001E-002    -59720.863463591471     
  -6.3500000000000001E-002    -61939.957689480929     
  -6.3000000000000000E-002    -64231.584896136861     
  -6.2500000000000000E-002    -66597.731946209213     
  -6.2000000000000000E-002    -69040.361686343327     
  -6.1499999999999999E-002    -71561.454406816760     
  -6.0999999999999999E-002    -74163.068987300227     
  -6.0499999999999998E-002    -76847.281641555412     
  -5.9999999999999998E-002    -79616.235220725270     
  -5.9499999999999997E-002    -82472.026567856796     
  -5.8999999999999997E-002    -85416.862807837446     
  -5.8499999999999996E-002    -88452.890764495867     
  -5.7999999999999996E-002    -91582.421666803304     
  -5.7499999999999996E-002    -94807.710941535333     
  -5.6999999999999995E-002    -98131.129005724695     
  -5.6499999999999995E-002    -101554.94439436220     
  -5.5999999999999994E-002    -105081.52904430815     
  -5.5499999999999994E-002    -108713.29863295253     
  -5.4999999999999993E-002    -112452.69547680681     
  -5.4499999999999993E-002    -116302.15139781656     
  -5.3999999999999992E-002    -120264.17355511738     
  -5.3499999999999992E-002    -124341.34181569441     
  -5.2999999999999992E-002    -128535.99664280476     
  -5.2499999999999991E-002    -132850.90692266641     
  -5.1999999999999991E-002    -137288.50647386347     
  -5.1499999999999990E-002    -141851.47471495342     
  -5.0999999999999990E-002    -146542.32633962558     
  -5.0499999999999989E-002    -151363.71842562372     
  -4.9999999999999989E-002    -156318.24091437622     
  -4.9499999999999988E-002    -161408.46857981564     
  -4.8999999999999988E-002    -166637.14316504874     
  -4.8499999999999988E-002    -172006.85931989664     
  -4.7999999999999987E-002    -177520.38408320476     
  -4.7499999999999987E-002    -183180.44693625628     
  -4.6999999999999986E-002    -188989.82680785889     
  -4.6499999999999986E-002    -194951.14839363063     
  -4.5999999999999985E-002    -201067.18914922699     
  -4.5499999999999985E-002    -207340.77754619825     
  -4.4999999999999984E-002    -213774.29110640744     
  -4.4499999999999984E-002    -220370.62778787524     
  -4.3999999999999984E-002    -227132.45774947634     
  -4.3499999999999983E-002    -234062.34975092544     
  -4.2999999999999983E-002    -241163.01801978805     
  -4.2499999999999982E-002    -248436.94861417176     
  -4.1999999999999982E-002    -255886.67709370755     
  -4.1499999999999981E-002    -263515.10396334052     
  -4.0999999999999981E-002    -271324.50502999086     
  -4.0499999999999980E-002    -279317.30212416459     
  -3.9999999999999980E-002    -287496.60902558669     
  -3.9499999999999980E-002    -295864.09683360090     
  -3.8999999999999979E-002    -304422.43402433570     
  -3.8499999999999979E-002    -313174.05611871864     
  -3.7999999999999978E-002    -322121.01562058361     
  -3.7499999999999978E-002    -331266.03400114831     
  -3.6999999999999977E-002    -340610.87665493425     
  -3.6499999999999977E-002    -350157.76320813567     
  -3.5999999999999976E-002    -359908.85329833213     
  -3.5499999999999976E-002    -369866.11489441659     
  -3.4999999999999976E-002    -380031.19479792193     
  -3.4499999999999975E-002    -390406.17152349773     
  -3.3999999999999975E-002    -400992.38334111526     
  -3.3499999999999974E-002    -411791.69712852762     
  -3.2999999999999974E-002    -422805.88774152577     
  -3.2499999999999973E-002    -434036.05741132662     
  -3.1999999999999973E-002    -445483.45641966769     
  -3.1500000000000000E-002    -457149.25931413093     
  -3.1000000000000000E-002    -469034.95329461922     
  -3.0499999999999999E-002    -481140.65003997576     
  -2.9999999999999999E-002    -493467.84887768794     
  -2.9499999999999998E-002    -506017.32990416151     
  -2.8999999999999998E-002    -518788.98358162330     
  -2.8499999999999998E-002    -531783.74727730197     
  -2.7999999999999997E-002    -545001.59480155725     
  -2.7499999999999997E-002    -558443.50155264023     
  -2.6999999999999996E-002    -572108.14647220611     
  -2.6499999999999996E-002    -585995.87258910981     
  -2.5999999999999995E-002    -600105.58000844880     
  -2.5499999999999995E-002    -614436.27008564211     
  -2.4999999999999994E-002    -628987.80201296811     
  -2.4499999999999994E-002    -643758.28306746564     
  -2.3999999999999994E-002    -658747.43961638352     
  -2.3499999999999993E-002    -673953.39027166157     
  -2.2999999999999993E-002    -689374.89743400842     
  -2.2499999999999992E-002    -705009.22114774969     
  -2.1999999999999992E-002    -720854.00019343407     
  -2.1499999999999991E-002    -736908.28695003025     
  -2.0999999999999991E-002    -753168.46389710205     
  -2.0499999999999990E-002    -769631.31372585567     
  -1.9999999999999990E-002    -786294.78716200171     
  -1.9499999999999990E-002    -803154.45471104572     
  -1.8999999999999989E-002    -820206.75843369716     
  -1.8499999999999989E-002    -837447.25152410637     
  -1.7999999999999988E-002    -854870.75682859658     
  -1.7499999999999988E-002    -872472.92029793945     
  -1.6999999999999987E-002    -890249.71698981093     
  -1.6499999999999987E-002    -908194.35297328001     
  -1.5999999999999986E-002    -926302.06760422420     
  -1.5499999999999986E-002    -944567.89114629396     
  -1.4999999999999986E-002    -962984.52466779179     
  -1.4499999999999985E-002    -981545.59496269492     
  -1.3999999999999985E-002    -1000245.7417968225     
  -1.3499999999999984E-002    -1019075.7635295927     
  -1.2999999999999984E-002    -1038029.5019301521     
  -1.2499999999999983E-002    -1057097.5664307438     
  -1.1999999999999983E-002    -1076272.5503058180     
  -1.1499999999999982E-002    -1095544.0253823220     
  -1.0999999999999982E-002    -1114903.5977644438     
  -1.0499999999999982E-002    -1134339.6316702247     
  -9.9999999999999811E-003    -1153844.2608932380     
  -9.4999999999999807E-003    -1173404.6851792093     
  -8.9999999999999802E-003    -1193011.9785953804     
  -8.4999999999999798E-003    -1212653.3818012944     
  -7.9999999999999793E-003    -1232321.4837855983     
  -7.4999999999999789E-003    -1251999.7820540636     
  -6.9999999999999785E-003    -1271680.7307443768     
  -6.4999999999999780E-003    -1291348.6649123149     
  -5.9999999999999776E-003    -1310991.2537181340     
  -5.4999999999999771E-003    -1330594.3094304670     
  -4.9999999999999767E-003    -1350143.5599503124     
  -4.4999999999999762E-003    -1369623.7721728119     
  -3.9999999999999758E-003    -1389019.8390868532     
  -3.4999999999999754E-003    -1408316.4754074493     
  -2.9999999999999749E-003    -1427496.6202689714     
  -2.4999999999999745E-003    -1446545.6506011889     
  -1.9999999999999740E-003    -1465444.0266417083     
  -1.4999999999999736E-003    -1484175.6667697479     
  -9.9999999999997313E-004    -1502722.3173321632     
  -4.9999999999997269E-004    -1521068.3281983435     
   0.0000000000000000         -1539195.7230005595     
   5.0000000000000044E-004    -1557083.0568961047     
   1.0000000000000009E-003    -1574710.9506310779     
   1.5000000000000013E-003    -1592061.1978945530     
   2.0000000000000018E-003    -1609113.0980743393     
   2.5000000000000022E-003    -1625842.4799438189     
   3.0000000000000027E-003    -1642231.1666558918     
   3.5000000000000031E-003    -1658253.5050805958     
   4.0000000000000036E-003    -1673892.1508420450     
   4.5000000000000040E-003    -1689125.1819799044     
   5.0000000000000044E-003    -1703923.9859861706     
   5.5000000000000049E-003    -1718270.9555487796     
   6.0000000000000053E-003    -1732140.8038816731     
   6.5000000000000058E-003    -1745511.7218110773     
   7.0000000000000062E-003    -1758360.6950520354     
   7.5000000000000067E-003    -1770657.4262064185     
   8.0000000000000071E-003    -1782379.4013920811     
   8.5000000000000075E-003    -1793505.9558382921     
   9.0000000000000080E-003    -1804006.8657633816     
   9.5000000000000084E-003    -1813857.2004765340     
   1.0000000000000009E-002    -1823027.5351068743     
   1.0500000000000009E-002    -1831492.6038488501     
   1.1000000000000010E-002    -1839228.1738987218     
   1.1500000000000010E-002    -1846202.8219424631     
   1.2000000000000011E-002    -1852393.0410127474     
   1.2500000000000011E-002    -1857766.8999447273     
   1.3000000000000012E-002    -1862302.3363549809     
   1.3500000000000012E-002    -1865963.8499931325     
   1.4000000000000012E-002    -1868731.3611918723     
   1.4500000000000013E-002    -1870570.8553988647     
   1.5000000000000013E-002    -1871457.4973953520     
   1.5500000000000014E-002    -1871367.8196403077     
   1.6000000000000014E-002    -1870269.1099393032     
   1.6500000000000015E-002    -1868130.7022633445     
   1.7000000000000015E-002    -1864925.2240296819     
   1.7500000000000016E-002    -1860627.7073778543     
   1.8000000000000016E-002    -1855198.4784603424     
   1.8500000000000016E-002    -1848619.2002199206     
   1.9000000000000017E-002    -1840860.2779324315     
   1.9500000000000017E-002    -1831885.5668467425     
   2.0000000000000018E-002    -1821676.2724503498     
   2.0500000000000018E-002    -1810202.0330438472     
   2.1000000000000019E-002    -1797431.1717593975     
   2.1500000000000019E-002    -1783342.0567306767     
   2.2000000000000020E-002    -1767897.8837307768     
   2.2500000000000020E-002    -1751084.5307881013     
   2.3000000000000020E-002    -1732862.5519583593     
   2.3500000000000021E-002    -1713202.1178229088     
   2.4000000000000021E-002    -1692096.1853395845     
   2.4500000000000022E-002    -1669495.9492023529     
   2.5000000000000022E-002    -1645385.0425339048     
   2.5500000000000023E-002    -1619744.0147820893     
   2.6000000000000023E-002    -1592542.5579481910     
   2.6500000000000024E-002    -1563754.4367168793     
   2.7000000000000024E-002    -1533364.7556916885     
   2.7500000000000024E-002    -1501341.3493096100     
   2.8000000000000025E-002    -1467665.7351285364     
   2.8500000000000025E-002    -1432318.5861440168     
   2.9000000000000026E-002    -1395272.9044945079     
   2.9500000000000026E-002    -1356517.4659512700     
   3.0000000000000027E-002    -1316024.1184917500     
   3.0500000000000027E-002    -1273781.8923386706     
   3.1000000000000028E-002    -1229763.7329717907     
   3.1500000000000028E-002    -1183962.7071971151     
   3.2000000000000028E-002    -1136356.7847504239     