 -0.23999999999999999          0.0000000000000000     
 -0.23949999999999999          0.0000000000000000     
 -0.23899999999999999          0.0000000000000000     
 -0.23849999999999999          0.0000000000000000     
 -0.23799999999999999          0.0000000000000000     
 -0.23749999999999999          0.0000000000000000     
 -0.23699999999999999          0.0000000000000000     
 -0.23649999999999999          0.0000000000000000     
 -0.23599999999999999          0.0000000000000000     
 -0.23549999999999999          1.9646776471239558E-031
 -0.23499999999999999          3.2021304949167859E-030
 -0.23449999999999999          2.6871721114260733E-029
 -0.23399999999999999          1.5392269245667192E-028
 -0.23349999999999999          6.7229842497584645E-028
 -0.23299999999999998          2.3668348198927557E-027
 -0.23249999999999998          6.9041768944843822E-027
 -0.23199999999999998          1.6790784189600707E-026
 -0.23149999999999998          3.3253445383460226E-026
 -0.23099999999999998          4.8297078312807320E-026
 -0.23049999999999998          2.4212476949069405E-026
 -0.22999999999999998         -1.4906178846992990E-025
 -0.22949999999999998         -7.2850027628570114E-025
 -0.22899999999999998         -2.2272552858742581E-024
 -0.22849999999999998         -5.5412800646608119E-024
 -0.22799999999999998         -1.2037339782155055E-023
 -0.22749999999999998         -2.3488014753149917E-023
 -0.22699999999999998         -4.1670188923106760E-023
 -0.22649999999999998         -6.7386909282905184E-023
 -0.22599999999999998         -9.8672072554913895E-023
 -0.22549999999999998         -1.2805132263635967E-022
 -0.22499999999999998         -1.3902461764169914E-022
 -0.22449999999999998         -1.0244516902103703E-022
 -0.22399999999999998          2.5811489375786245E-023
 -0.22349999999999998          3.0366782765747444E-022
 -0.22299999999999998          7.9526337605843244E-022
 -0.22249999999999998          1.5538572660679245E-021
 -0.22199999999999998          2.5928699275717069E-021
 -0.22150000000000000          3.8448716003625031E-021
 -0.22100000000000000          5.1121062403419894E-021
 -0.22050000000000000          6.0177240121422878E-021
 -0.22000000000000000          5.9731927761772383E-021
 -0.21950000000000000          4.1835786351895265E-021
 -0.21900000000000000         -2.8383546060343473E-022
 -0.21850000000000000         -8.3435519267657477E-021
 -0.21800000000000000         -2.0633052643442074E-020
 -0.21750000000000000         -3.7154012747298319E-020
 -0.21700000000000000         -5.6844840433970004E-020
 -0.21650000000000000         -7.7151859515856875E-020
 -0.21600000000000000         -9.3704913258127897E-020
 -0.21550000000000000         -1.0023709393197380E-019
 -0.21500000000000000         -8.8903582166655061E-020
 -0.21450000000000000         -5.1142987536413951E-020
 -0.21400000000000000          2.0827978077907621E-020
 -0.21350000000000000          1.3189823967100788E-019
 -0.21299999999999999          2.8147113183377187E-019
 -0.21249999999999999          4.6073355243380712E-019
 -0.21199999999999999          6.5028741817310329E-019
 -0.21149999999999999          8.1881166440431070E-019
 -0.21099999999999999          9.2349349057321602E-019
 -0.21049999999999999          9.1293556402974231E-019
 -0.20999999999999999          7.3300408356112238E-019
 -0.20949999999999999          3.3576700874781118E-019
 -0.20899999999999999         -3.0894562568699098E-019
 -0.20849999999999999         -1.2004960117922174E-018
 -0.20799999999999999         -2.2946935246070830E-018
 -0.20749999999999999         -3.4938884846933311E-018
 -0.20699999999999999         -4.6426727835039131E-018
 -0.20649999999999999         -5.5320855022617553E-018
 -0.20599999999999999         -5.9146151765369029E-018
 -0.20549999999999999         -5.5311631958787587E-018
 -0.20499999999999999         -4.1495631234008391E-018
 -0.20449999999999999         -1.6118668890876749E-018
 -0.20399999999999999          2.1145947985583624E-018
 -0.20349999999999999          6.8894351207214577E-018
 -0.20299999999999999          1.2364028261688327E-017
 -0.20249999999999999          1.7968056970546270E-017
 -0.20199999999999999          2.2927011360246571E-017
 -0.20149999999999998          2.6316698248815372E-017
 -0.20099999999999998          2.7157390029493841E-017
 -0.20049999999999998          2.4543835129154970E-017
 -0.19999999999999998          1.7801074020290190E-017
 -0.19949999999999998          6.6498521824628239E-018
 -0.19899999999999998         -8.6423822127734206E-018
 -0.19849999999999998         -2.7150764312787291E-017
 -0.19799999999999998         -4.7250210950254047E-017
 -0.19749999999999998         -6.6664636235241138E-017
 -0.19699999999999998         -8.2624404557627063E-017
 -0.19649999999999998         -9.2135585321112892E-017
 -0.19600000000000001         -9.2348753073690258E-017
 -0.19550000000000001         -8.0996956480931033E-017
 -0.19500000000000001         -5.6855597659342315E-017
 -0.19450000000000001         -2.0160034308613815E-017
 -0.19400000000000001          2.7087408895310630E-017
 -0.19350000000000001          8.0996943246041233E-017
 -0.19300000000000000          1.3591319941564072E-016
 -0.19250000000000000          1.8482224498375351E-016
 -0.19200000000000000          2.2004775122165890E-016
 -0.19150000000000000          2.3420082473733100E-016
 -0.19100000000000000          2.2130407313600444E-016
 -0.19050000000000000          1.7796283982799018E-016
 -0.19000000000000000          1.0442254599231027E-016
 -0.18950000000000000          5.3336709294995794E-018
 -0.18900000000000000         -1.0996473550575436E-016
 -0.18850000000000000         -2.2778367665915282E-016
 -0.18800000000000000         -3.3115713925906413E-016
 -0.18750000000000000         -4.0164838579986948E-016
 -0.18700000000000000         -4.2181094631807403E-016
 -0.18650000000000000         -3.7808850847912594E-016
 -0.18600000000000000         -2.6384041338589029E-016
 -0.18550000000000000         -8.2073449330107544E-017
 -0.18500000000000000          1.5259236340804157E-016
 -0.18450000000000000          4.1319813002193510E-016
 -0.18400000000000000          6.6138121878716845E-016
 -0.18350000000000000          8.5025596055816216E-016
 -0.18300000000000000          9.2930928082760999E-016
 -0.18250000000000000          8.5113777479581309E-016
 -0.18200000000000000          5.7952586058864419E-016
 -0.18149999999999999          9.8076998667954676E-017
 -0.18099999999999999         -5.8167605372524923E-016
 -0.18049999999999999         -1.4139443696759599E-015
 -0.17999999999999999         -2.3154812401081143E-015
 -0.17949999999999999         -3.1667527402304751E-015
 -0.17899999999999999         -3.8184660308368014E-015
 -0.17849999999999999         -4.1039597562582842E-015
 -0.17799999999999999         -3.8573520428958254E-015
 -0.17749999999999999         -2.9365205030790469E-015
 -0.17699999999999999         -1.2491787796222245E-015
 -0.17649999999999999          1.2204972911161282E-015
 -0.17599999999999999          4.3879919263292797E-015
 -0.17549999999999999          8.0509812480492916E-015
 -0.17499999999999999          1.1882116350678176E-014
 -0.17449999999999999          1.5435484785946904E-014
 -0.17399999999999999          1.8169419148481719E-014
 -0.17349999999999999          1.9486860313323168E-014
 -0.17299999999999999          1.8792857420517513E-014
 -0.17249999999999999          1.5566502148162305E-014
 -0.17199999999999999          9.4424674920408694E-015
 -0.17149999999999999          2.9490616728960941E-016
 -0.17099999999999999         -1.1685136297695346E-014
 -0.17049999999999998         -2.5929362416953275E-014
 -0.16999999999999998         -4.1459162627511051E-014
 -0.16949999999999998         -5.6890147974442140E-014
 -0.16899999999999998         -7.0482207852225198E-014
 -0.16849999999999998         -8.0239675038888680E-014
 -0.16799999999999998         -8.4062470255118898E-014
 -0.16749999999999998         -7.9942854365380039E-014
 -0.16699999999999998         -6.6197772903477808E-014
 -0.16649999999999998         -4.1719743843404364E-014
 -0.16599999999999998         -6.2250954276077668E-015
 -0.16549999999999998          3.9525633742550081E-014
 -0.16499999999999998          9.3564431647309015E-014
 -0.16449999999999998          1.5263491696688308E-013
 -0.16399999999999998          2.1222022891179831E-013
 -0.16349999999999998          2.6669663114216313E-013
 -0.16299999999999998          3.0962396275341364E-013
 -0.16249999999999998          3.3417065230419152E-013
 -0.16199999999999998          3.3365890887877836E-013
 -0.16149999999999998          3.0220411676579184E-013
 -0.16099999999999998          2.3540452356515806E-013
 -0.16049999999999998          1.3103141618606151E-013
 -0.15999999999999998         -1.0344231473182006E-014
 -0.15949999999999998         -1.8484645509121017E-013
 -0.15899999999999997         -3.8498569024554563E-013
 -0.15849999999999997         -5.9959307484314106E-013
 -0.15799999999999997         -8.1404999928424981E-013
 -0.15749999999999997         -1.0108337777925414E-012
 -0.15699999999999997         -1.1703885473626774E-012
 -0.15649999999999997         -1.2722937937567624E-012
 -0.15599999999999997         -1.2966867163344276E-012
 -0.15549999999999997         -1.2258583904911635E-012
 -0.15499999999999997         -1.0459260410891624E-012
 -0.15449999999999997         -7.4847707242156614E-013
 -0.15399999999999997         -3.3203705084895729E-013
 -0.15349999999999997          1.9673999029305028E-013
 -0.15299999999999997          8.2228901422329304E-013
 -0.15249999999999997          1.5198630114870992E-012
 -0.15200000000000000          2.2558220482554736E-012
 -0.15150000000000000          2.9885393205281163E-012
 -0.15100000000000000          3.6699211378166119E-012
 -0.15049999999999999          4.2474786708657231E-012
 -0.14999999999999999          4.6668818982908977E-012
 -0.14949999999999999          4.8748778451457309E-012
 -0.14899999999999999          4.8224228429982752E-012
 -0.14849999999999999          4.4678592422964236E-012
 -0.14799999999999999          3.7800040875168861E-012
 -0.14749999999999999          2.7409407209189052E-012
 -0.14699999999999999          1.3484158451274042E-012
 -0.14649999999999999         -3.8229247783898301E-013
 -0.14599999999999999         -2.4171162033709281E-012
 -0.14549999999999999         -4.7026007220229982E-012
 -0.14499999999999999         -7.1659414513369768E-012
 -0.14449999999999999         -9.7157256198632247E-012
 -0.14399999999999999         -1.2243273235512664E-011
 -0.14349999999999999         -1.4624603611457232E-011
 -0.14299999999999999         -1.6722956353021345E-011
 -0.14249999999999999         -1.8391899114789112E-011
 -0.14199999999999999         -1.9479012153267306E-011
 -0.14149999999999999         -1.9830323147451701E-011
 -0.14099999999999999         -1.9295384734441257E-011
 -0.14049999999999999         -1.7733198590108579E-011
 -0.13999999999999999         -1.5019131771598637E-011
 -0.13949999999999999         -1.1052813178591414E-011
 -0.13899999999999998         -5.7670760528205633E-012
 -0.13849999999999998          8.6235841601292607E-013
 -0.13799999999999998          8.8063532160953528E-012
 -0.13749999999999998          1.7971473267874849E-011
 -0.13699999999999998          2.8189705778003393E-011
 -0.13649999999999998          3.9208556540382133E-011
 -0.13599999999999998          5.0684064584194388E-011
 -0.13550000000000001          6.2175549431220389E-011
 -0.13500000000000001          7.3145635381965945E-011
 -0.13450000000000001          8.2964864145385064E-011
 -0.13400000000000001          9.0923012174837226E-011
 -0.13350000000000001          9.6247398939652840E-011
 -0.13300000000000001          9.8129428194315693E-011
 -0.13250000000000001          9.5758838358772636E-011
 -0.13200000000000001          8.8365786909960775E-011
 -0.13150000000000001          7.5270290000872819E-011
 -0.13100000000000001          5.5935457654587850E-011
 -0.13050000000000000          3.0025947006517839E-011
 -0.13000000000000000         -2.5348438625893976E-012
 -0.12950000000000000         -4.1510472142958221E-011
 -0.12900000000000000         -8.6303388047159757E-011
 -0.12850000000000000         -1.3591783254440770E-010
 -0.12800000000000000         -1.8893689390786506E-010
 -0.12750000000000000         -2.4351937133459955E-010
 -0.12700000000000000         -2.9741611951017433E-010
 -0.12650000000000000         -3.4801167503317743E-010
 -0.12600000000000000         -3.9239106408572866E-010
 -0.12550000000000000         -4.2743072969919638E-010
 -0.12499999999999999         -4.4991391168203165E-010
 -0.12449999999999999         -4.5667020165396366E-010
 -0.12399999999999999         -4.4472675542195361E-010
 -0.12349999999999998         -4.1147685259090849E-010
 -0.12299999999999998         -3.5485056559814154E-010
 -0.12249999999999998         -2.7348337483523721E-010
 -0.12199999999999998         -1.6687407011772848E-010
 -0.12149999999999998         -3.5524541641684948E-011
 -0.12099999999999998          1.1894929485833927E-010
 -0.12049999999999998          2.9374033760909413E-010
 -0.12000000000000000          4.8481640924080693E-010
 -0.11950000000000000          6.8693156718424575E-010
 -0.11899999999999999          8.9368989986127190E-010
 -0.11849999999999999          1.0976580755439613E-009
 -0.11799999999999999          1.2905373436566947E-009
 -0.11749999999999999          1.4633764200411292E-009
 -0.11699999999999999          1.6068346653241861E-009
 -0.11649999999999999          1.7114891726066617E-009
 -0.11599999999999999          1.7681622832554922E-009
 -0.11549999999999999          1.7682811881414295E-009
 -0.11499999999999999          1.7042474098616367E-009
 -0.11449999999999999          1.5698001787356475E-009
 -0.11399999999999999          1.3603826953811904E-009
 -0.11349999999999999          1.0734723110417121E-009
 -0.11299999999999999          7.0888778180844270E-010
 -0.11249999999999999          2.6904053984644349E-010
 -0.11199999999999999         -2.4086047045734915E-010
 -0.11149999999999999         -8.1267426121911512E-010
 -0.11099999999999999         -1.4352725674626754E-009
 -0.11049999999999999         -2.0945651879600291E-009
 -0.10999999999999999         -2.7736191121618958E-009
 -0.10949999999999999         -3.4528662151700473E-009
 -0.10899999999999999         -4.1104413206483059E-009
 -0.10849999999999999         -4.7225698907027436E-009
 -0.10799999999999998         -5.2641322412227964E-009
 -0.10749999999999998         -5.7092459648799831E-009
 -0.10699999999999998         -6.0320193284724155E-009
 -0.10649999999999998         -6.2073368667370232E-009
 -0.10599999999999998         -6.2117178067921941E-009
 -0.10549999999999998         -6.0242535404597675E-009
 -0.10499999999999998         -5.6275322179999421E-009
 -0.10449999999999998         -5.0085895431095651E-009
 -0.10399999999999998         -4.1598156030886457E-009
 -0.10349999999999998         -3.0797822070383063E-009
 -0.10299999999999998         -1.7739700819419113E-009
 -0.10249999999999998         -2.5537758019389400E-010
 -0.10199999999999998          1.4551061466860915E-009
 -0.10149999999999998          3.3284930367472043E-009
 -0.10099999999999998          5.3277684486374710E-009
 -0.10049999999999998          7.4082309176048966E-009
  -9.9999999999999978E-002     9.5180840986586190E-009
  -9.9499999999999977E-002     1.1599365024039798E-008
  -9.8999999999999977E-002     1.3589178671225000E-008
  -9.8499999999999976E-002     1.5421052879105446E-008
  -9.7999999999999976E-002     1.7026822618504411E-008
  -9.7499999999999976E-002     1.8338363716452477E-008
  -9.6999999999999975E-002     1.9289782215992091E-008
  -9.6499999999999975E-002     1.9819465180148654E-008
  -9.5999999999999974E-002     1.9872281598054542E-008
  -9.5500000000000002E-002     1.9401667827878555E-008
  -9.5000000000000001E-002     1.8371574483921904E-008
  -9.4500000000000001E-002     1.6758216148105021E-008
  -9.4000000000000000E-002     1.4551555516106873E-008
  -9.3500000000000000E-002     1.1756458917488999E-008
  -9.2999999999999999E-002     8.3933366923361064E-009
  -9.2499999999999999E-002     4.4985930536256546E-009
  -9.1999999999999998E-002     1.2441532526441534E-010
  -9.1499999999999998E-002    -4.6618127136355270E-009
  -9.0999999999999998E-002    -9.7784411678958350E-009
  -9.0499999999999997E-002    -1.5131085717712267E-008
  -8.9999999999999997E-002    -2.0614354667713997E-008
  -8.9499999999999996E-002    -2.6113914586289866E-008
  -8.8999999999999996E-002    -3.1508957221149103E-008
  -8.8499999999999995E-002    -3.6674599357411353E-008
  -8.7999999999999995E-002    -4.1484550905579454E-008
  -8.7499999999999994E-002    -4.5813759896873307E-008
  -8.6999999999999994E-002    -4.9541093005700532E-008
  -8.6499999999999994E-002    -5.2551595075556179E-008
  -8.5999999999999993E-002    -5.4739217603128054E-008
  -8.5499999999999993E-002    -5.6008634174986582E-008
  -8.4999999999999992E-002    -5.6277265514381725E-008
  -8.4499999999999992E-002    -5.5476924387676263E-008
  -8.3999999999999991E-002    -5.3555169188257423E-008
  -8.3499999999999991E-002    -5.0476494095619273E-008
  -8.2999999999999990E-002    -4.6223078697948949E-008
  -8.2499999999999990E-002    -4.0795406164306769E-008
  -8.1999999999999990E-002    -3.4212725097404473E-008
  -8.1499999999999989E-002    -2.6513069073530460E-008
  -8.0999999999999989E-002    -1.7753285064259217E-008
  -8.0499999999999988E-002    -8.0089321841114725E-009
  -7.9999999999999988E-002     2.6264641572737446E-009
  -7.9499999999999987E-002     1.4041579454726616E-008
  -7.8999999999999987E-002     2.6108239126187982E-008
  -7.8499999999999986E-002     3.8682220093733122E-008
  -7.7999999999999986E-002     5.1604327921950244E-008
  -7.7499999999999986E-002     6.4701346502715751E-008
  -7.6999999999999985E-002     7.7787625230030244E-008
  -7.6499999999999985E-002     9.0666603114186728E-008
  -7.5999999999999984E-002     1.0313211618040441E-007
  -7.5499999999999984E-002     1.1497049001718551E-007
  -7.4999999999999983E-002     1.2596262877195841E-007
  -7.4499999999999983E-002     1.3588561387223308E-007
  -7.3999999999999982E-002     1.4451541119342437E-007
  -7.3499999999999982E-002     1.5162873978624702E-007
  -7.2999999999999982E-002     1.5700604194535117E-007
  -7.2499999999999981E-002     1.6043379957864090E-007
  -7.1999999999999981E-002     1.6170707795026829E-007
  -7.1499999999999980E-002     1.6063195573678968E-007
  -7.0999999999999980E-002     1.5702978828358027E-007
  -7.0499999999999979E-002     1.5073824499722832E-007
  -6.9999999999999979E-002     1.4161565786707797E-007
  -6.9499999999999978E-002     1.2954373573847988E-007
  -6.8999999999999978E-002     1.1443226100027459E-007
  -6.8499999999999978E-002     9.6219515910433984E-008
  -6.7999999999999977E-002     7.4879238809444360E-008
  -6.7499999999999977E-002     5.0423317077274987E-008
  -6.6999999999999976E-002     2.2904270480239575E-008
  -6.6499999999999976E-002    -7.5783770370208003E-009
  -6.5999999999999975E-002    -4.0876301454773056E-008
  -6.5499999999999975E-002    -7.6786719205301779E-008
  -6.4999999999999974E-002    -1.1505225216978943E-007
  -6.4499999999999974E-002    -1.5535380271103350E-007
  -6.4000000000000001E-002    -1.9730826750219421E-007
  -6.3500000000000001E-002    -2.4047255919867894E-007
  -6.3000000000000000E-002    -2.8433368015612359E-007
  -6.2500000000000000E-002    -3.2831607654770778E-007
  -6.2000000000000000E-002    -3.7178173784013779E-007
  -6.1499999999999999E-002    -4.1403089312552765E-007
  -6.0999999999999999E-002    -4.5430837758431153E-007
  -6.0499999999999998E-002    -4.9180141559190815E-007
  -5.9999999999999998E-002    -5.2566360864148010E-007
  -5.9499999999999997E-002    -5.5500760254290071E-007
  -5.8999999999999997E-002    -5.7892026461558999E-007
  -5.8499999999999996E-002    -5.9647885564118042E-007
  -5.7999999999999996E-002    -6.0674682345052133E-007
  -5.7499999999999996E-002    -6.0880870478285942E-007
  -5.6999999999999995E-002    -6.0175779026394594E-007
  -5.6499999999999995E-002    -5.8473659692026558E-007
  -5.5999999999999994E-002    -5.5692731848466792E-007
  -5.5499999999999994E-002    -5.1756842367467470E-007
  -5.4999999999999993E-002    -4.6596420588684850E-007
  -5.4499999999999993E-002    -4.0150453628484684E-007
  -5.3999999999999992E-002    -3.2365065294470696E-007
  -5.3499999999999992E-002    -2.3196783160983614E-007
  -5.2999999999999992E-002    -1.2610200883500511E-007
  -5.2499999999999991E-002    -5.7930389374405422E-009
  -5.1999999999999991E-002     1.2910501823171217E-007
  -5.1499999999999990E-002     2.7869532459590118E-007
  -5.0999999999999990E-002     4.4294063172856113E-007
  -5.0499999999999989E-002     6.2176451365303365E-007
  -4.9999999999999989E-002     8.1498058079887414E-007
  -4.9499999999999988E-002     1.0223957360722125E-006
  -4.8999999999999988E-002     1.2437086525096674E-006
  -4.8499999999999988E-002     1.4786045312575880E-006
  -4.7999999999999987E-002     1.7267341263504932E-006
  -4.7499999999999987E-002     1.9877559225278674E-006
  -4.6999999999999986E-002     2.2612716747971717E-006
  -4.6499999999999986E-002     2.5469180400250480E-006
  -4.5999999999999985E-002     2.8443942028388847E-006
  -4.5499999999999985E-002     3.1533054425381124E-006
  -4.4999999999999984E-002     3.4734639484668151E-006
  -4.4499999999999984E-002     3.8046659938117955E-006
  -4.3999999999999984E-002     4.1466541915724520E-006
  -4.3499999999999983E-002     4.4994180825597141E-006
  -4.2999999999999983E-002     4.8630190576659516E-006
  -4.2499999999999982E-002     5.2375394261616748E-006
  -4.1999999999999982E-002     5.6232697716041002E-006
  -4.1499999999999981E-002     6.0204711189726368E-006
  -4.0999999999999981E-002     6.4296596065105405E-006
  -4.0499999999999980E-002     6.8515805651259143E-006
  -3.9999999999999980E-002     7.2869424911914393E-006
  -3.9499999999999980E-002     7.7367703852360137E-006
  -3.8999999999999979E-002     8.2022106653312221E-006
  -3.8499999999999979E-002     8.6846721387701109E-006
  -3.7999999999999978E-002     9.1858300947933458E-006
  -3.7499999999999978E-002     9.7073425422422588E-006
  -3.6999999999999977E-002     1.0251404091832228E-005
  -3.6499999999999977E-002     1.0820367606356740E-005
  -3.5999999999999976E-002     1.1416662346164230E-005
  -3.5499999999999976E-002     1.2043357855873182E-005
  -3.4999999999999976E-002     1.2703363609034568E-005
  -3.4499999999999975E-002     1.3400438547250815E-005
  -3.3999999999999975E-002     1.4138144251774065E-005
  -3.3499999999999974E-002     1.4920658941264264E-005
  -3.2999999999999974E-002     1.5752515537315048E-005
  -3.2499999999999973E-002     1.6638201486784965E-005
  -3.1999999999999973E-002     1.7583086446393281E-005
  -3.1500000000000000E-002     1.8592681954032741E-005
  -3.1000000000000000E-002     1.9672657799674198E-005
  -3.0499999999999999E-002     2.0828934793826193E-005
  -2.9999999999999999E-002     2.2068592443247326E-005
  -2.9499999999999998E-002     2.3398399207508191E-005
  -2.8999999999999998E-002     2.4825216314638965E-005
  -2.8499999999999998E-002     2.6357498427387327E-005
  -2.7999999999999997E-002     2.8002616090816446E-005
  -2.7499999999999997E-002     2.9769134926027618E-005
  -2.6999999999999996E-002     3.1665993446949869E-005
  -2.6499999999999996E-002     3.3702024666126817E-005
  -2.5999999999999995E-002     3.5886834666598588E-005
  -2.5499999999999995E-002     3.8231362850638106E-005
  -2.4999999999999994E-002     4.0744602301856503E-005
  -2.4499999999999994E-002     4.3436994019430131E-005
  -2.3999999999999994E-002     4.6321209083544090E-005
  -2.3499999999999993E-002     4.9406931793782860E-005
  -2.2999999999999993E-002     5.2707800932694227E-005
  -2.2499999999999992E-002     5.6235574447782710E-005
  -2.1999999999999992E-002     6.0003210819559172E-005
  -2.1499999999999991E-002     6.4024519815575331E-005
  -2.0999999999999991E-002     6.8312023358885199E-005
  -2.0499999999999990E-002     7.2884460678324103E-005
  -1.9999999999999990E-002     7.7753735240548849E-005
  -1.9499999999999990E-002     8.2938575360458344E-005
  -1.8999999999999989E-002     8.8455184595659375E-005
  -1.8499999999999989E-002     9.4322283985093236E-005
  -1.7999999999999988E-002     1.0055887833004817E-004
  -1.7499999999999988E-002     1.0718387784436345E-004
  -1.6999999999999987E-002     1.1422352690715343E-004
  -1.6499999999999987E-002     1.2169495312264189E-004
  -1.5999999999999986E-002     1.2962480832356960E-004
  -1.5499999999999986E-002     1.3803933688905090E-004
  -1.4999999999999986E-002     1.4696629659738392E-004
  -1.4499999999999985E-002     1.5643064398318529E-004
  -1.3999999999999985E-002     1.6646708536427468E-004
  -1.3499999999999984E-002     1.7710511747281998E-004
  -1.2999999999999984E-002     1.8838209507521242E-004
  -1.2499999999999983E-002     2.0033234613947570E-004
  -1.1999999999999983E-002     2.1299179934430867E-004
  -1.1499999999999982E-002     2.2640540555585176E-004
  -1.0999999999999982E-002     2.4061558360699564E-004
  -1.0499999999999982E-002     2.5566661497578025E-004
  -9.9999999999999811E-003     2.7160492027178407E-004
  -9.4999999999999807E-003     2.8848260990343988E-004
  -8.9999999999999802E-003     3.0635591247119009E-004
  -8.4999999999999798E-003     3.2528533483855426E-004
  -7.9999999999999793E-003     3.4531994606368244E-004
  -7.4999999999999789E-003     3.6652493872679770E-004
  -6.9999999999999785E-003     3.8897845661267638E-004
  -6.4999999999999780E-003     4.1274217073805630E-004
  -5.9999999999999776E-003     4.3788994662463665E-004
  -5.4999999999999771E-003     4.6449477667920291E-004
  -4.9999999999999767E-003     4.9265194684267044E-004
  -4.4999999999999762E-003     5.2244652761146426E-004
  -3.9999999999999758E-003     5.5396102834492922E-004
  -3.4999999999999754E-003     5.8729178272187710E-004
  -2.9999999999999749E-003     6.2254921067506075E-004
  -2.4999999999999745E-003     6.5983051899820566E-004
  -1.9999999999999740E-003     6.9926178548485041E-004
  -1.4999999999999736E-003     7.4095593299716711E-004
  -9.9999999999997313E-004     7.8503420809283853E-004
  -4.9999999999997269E-004     8.3162740338593721E-004
   0.0000000000000000          8.8086974574252963E-004
   5.0000000000000044E-004     9.3291531084105372E-004
   1.0000000000000009E-003     9.8790822084993124E-004
   1.5000000000000013E-003     1.0460286866873503E-003
   2.0000000000000018E-003     1.1074155336245894E-003
   2.5000000000000022E-003     1.1722511844709516E-003
   3.0000000000000027E-003     1.2407288886606693E-003
   3.5000000000000031E-003     1.3130339793860912E-003
   4.0000000000000036E-003     1.3893852010369301E-003
   4.5000000000000040E-003     1.4699683524668217E-003
   5.0000000000000044E-003     1.5550177777186036E-003
   5.5000000000000049E-003     1.6447891248390079E-003
   6.0000000000000053E-003     1.7394955502822995E-003
   6.5000000000000058E-003     1.8394090002402663E-003
   7.0000000000000062E-003     1.9447866361588240E-003
   7.5000000000000067E-003     2.0559080876410007E-003
   8.0000000000000071E-003     2.1730996668338776E-003
   8.5000000000000075E-003     2.2966435644775629E-003
   9.0000000000000080E-003     2.4268843699246645E-003
   9.5000000000000084E-003     2.5641447864472866E-003
   1.0000000000000009E-002     2.7087817434221506E-003
   1.0500000000000009E-002     2.8612099122256041E-003
   1.1000000000000010E-002     3.0217615421861410E-003
   1.1500000000000010E-002     3.1908729579299688E-003
   1.2000000000000011E-002     3.3689569681882858E-003
   1.2500000000000011E-002     3.5564808640629053E-003
   1.3000000000000012E-002     3.7538602482527494E-003
   1.3500000000000012E-002     3.9616650901734829E-003
   1.4000000000000012E-002     4.1803647764027119E-003
   1.4500000000000013E-002     4.4104191474616528E-003
   1.5000000000000013E-002     4.6525411307811737E-003
   1.5500000000000014E-002     4.9072108231484890E-003
   1.6000000000000014E-002     5.1751136779785156E-003
   1.6500000000000015E-002     5.4568396881222725E-003
   1.7000000000000015E-002     5.7530771009624004E-003
   1.7500000000000016E-002     6.0645500198006630E-003
   1.8000000000000016E-002     6.3919699750840664E-003
   1.8500000000000016E-002     6.7360824905335903E-003
   1.9000000000000017E-002     7.0976861752569675E-003
   1.9500000000000017E-002     7.4777668341994286E-003
   2.0000000000000018E-002     7.8768702223896980E-003
   2.0500000000000018E-002     8.2962801679968834E-003
   2.1000000000000019E-002     8.7366467341780663E-003
   2.1500000000000019E-002     9.1991629451513290E-003
   2.2000000000000020E-002     9.6846800297498703E-003
   2.2500000000000020E-002     1.0194499976933002E-002
   2.3000000000000020E-002     1.0729529894888401E-002
   2.3500000000000021E-002     1.1291277594864368E-002
   2.4000000000000021E-002     1.1880475096404552E-002
   2.4500000000000022E-002     1.2498640455305576E-002
   2.5000000000000022E-002     1.3147177174687386E-002
   2.5500000000000023E-002     1.3827647082507610E-002
   2.6000000000000023E-002     1.4540787786245346E-002
   2.6500000000000024E-002     1.5288665890693665E-002
   2.7000000000000024E-002     1.6072815284132957E-002
   2.7500000000000024E-002     1.6894970089197159E-002
   2.8000000000000025E-002     1.7756255343556404E-002
   2.8500000000000025E-002     1.8659017980098724E-002
   2.9000000000000026E-002     1.9604878500103951E-002
   2.9500000000000026E-002     2.0595422014594078E-002
   3.0000000000000027E-002     2.1632891148328781E-002
   3.0500000000000027E-002     2.2719301283359528E-002
   3.1000000000000028E-002     2.3857010528445244E-002
   3.1500000000000028E-002     2.5048246607184410E-002
   3.2000000000000028E-002     2.6294328272342682E-002