 -0.23999999999999999          0.0000000000000000     
 -0.23949999999999999          0.0000000000000000     
 -0.23899999999999999          0.0000000000000000     
 -0.23849999999999999          1.4838784548060485E-018
 -0.23799999999999999          1.0879822339425126E-017
 -0.23749999999999999          3.9790506536146403E-017
 -0.23699999999999999          9.2422283733588083E-017
 -0.23649999999999999          1.3285214406413106E-016
 -0.23599999999999999          3.6422429301410484E-017
 -0.23549999999999999         -4.5125804213574054E-016
 -0.23499999999999999         -1.7049096599700809E-015
 -0.23449999999999999         -4.1088354533011344E-015
 -0.23399999999999999         -7.8083198378917439E-015
 -0.23349999999999999         -1.2330068840405933E-014
 -0.23299999999999998         -1.6147734216801144E-014
 -0.23249999999999998         -1.6347870028567487E-014
 -0.23199999999999998         -8.6145269715070633E-015
 -0.23149999999999998          1.2235175443860670E-014
 -0.23099999999999998          5.0995468448340846E-014
 -0.23049999999999998          1.1008222183844019E-013
 -0.22999999999999998          1.8703112519363358E-013
 -0.22949999999999998          2.7198274941934985E-013
 -0.22899999999999998          3.4590420823308704E-013
 -0.22849999999999998          3.8043594569808650E-013
 -0.22799999999999998          3.4019759547932682E-013
 -0.22749999999999998          1.8808125978522833E-013
 -0.22699999999999998         -1.0650100952262567E-013
 -0.22649999999999998         -5.5720946195946150E-013
 -0.22599999999999998         -1.1498328705064261E-012
 -0.22549999999999998         -1.8331471176507120E-012
 -0.22499999999999998         -2.5143051519381383E-012
 -0.22449999999999998         -3.0613648263976947E-012
 -0.22399999999999998         -3.3148074575425404E-012
 -0.22349999999999998         -3.1085191550867275E-012
 -0.22299999999999998         -2.2988424215484129E-012
 -0.22249999999999998         -7.9824494327107360E-013
 -0.22199999999999998          1.3916917405286433E-012
 -0.22150000000000000          4.1544601247150170E-012
 -0.22100000000000000          7.2466224771629273E-012
 -0.22050000000000000          1.0305085959539404E-011
 -0.22000000000000000          1.2876631642191758E-011
 -0.21950000000000000          1.4469088315128941E-011
 -0.21900000000000000          1.4619417669853309E-011
 -0.21850000000000000          1.2970016392706824E-011
 -0.21800000000000000          9.3415792460219178E-012
 -0.21750000000000000          3.7896543563927933E-012
 -0.21700000000000000         -3.3669418570653738E-012
 -0.21650000000000000         -1.1554268192611038E-011
 -0.21600000000000000         -1.9990945367571628E-011
 -0.21550000000000000         -2.7771683049233648E-011
 -0.21500000000000000         -3.3976198590574391E-011
 -0.21450000000000000         -3.7787631867771828E-011
 -0.21400000000000000         -3.8601465113139826E-011
 -0.21350000000000000         -3.6106463992062342E-011
 -0.21299999999999999         -3.0323015938980102E-011
 -0.21249999999999999         -2.1591557628914700E-011
 -0.21199999999999999         -1.0512960392528159E-011
 -0.21149999999999999          2.1475891027111180E-012
 -0.21099999999999999          1.5573736644326583E-011
 -0.21049999999999999          2.9004221089185060E-011
 -0.20999999999999999          4.1808631641966415E-011
 -0.20949999999999999          5.3514713986912011E-011
 -0.20899999999999999          6.3779522601455309E-011
 -0.20849999999999999          7.2309915549627373E-011
 -0.20799999999999999          7.8751534011083244E-011
 -0.20749999999999999          8.2576352500576582E-011
 -0.20699999999999999          8.3004597055191140E-011
 -0.20649999999999999          7.8995089451418414E-011
 -0.20599999999999999          6.9328223664270153E-011
 -0.20549999999999999          5.2788872188696992E-011
 -0.20499999999999999          2.8434847589505921E-011
 -0.20449999999999999         -4.0858817533727625E-012
 -0.20399999999999999         -4.4224408927939588E-011
 -0.20349999999999999         -9.0292192833395987E-011
 -0.20299999999999999         -1.3935880413770815E-010
 -0.20249999999999999         -1.8733616458696760E-010
 -0.20199999999999999         -2.2927317045497987E-010
 -0.20149999999999998         -2.5984966887100741E-010
 -0.20099999999999998         -2.7402111351778897E-010
 -0.20049999999999998         -2.6773105431737727E-010
 -0.19999999999999998         -2.3858557655250043E-010
 -0.19949999999999998         -1.8637713134300025E-010
 -0.19899999999999998         -1.1335783139335117E-010
 -0.19849999999999998         -2.4194418848714418E-011
 -0.19799999999999998          7.4416015721186639E-011
 -0.19749999999999998          1.7443497897097025E-010
 -0.19699999999999998          2.6738782757607491E-010
 -0.19649999999999998          3.4535544951198265E-010
 -0.19600000000000001          4.0189992681669620E-010
 -0.19550000000000001          4.3277622529437907E-010
 -0.19500000000000001          4.3631342916461592E-010
 -0.19450000000000001          4.1340407530993092E-010
 -0.19400000000000001          3.6711011486345149E-010
 -0.19350000000000001          3.0196536757214802E-010
 -0.19300000000000000          2.2311730384291542E-010
 -0.19250000000000000          1.3548768874580008E-010
 -0.19200000000000000          4.3136531968719061E-011
 -0.19150000000000000         -5.1016398773284804E-011
 -0.19100000000000000         -1.4502419036264056E-010
 -0.19050000000000000         -2.3729859563576496E-010
 -0.19000000000000000         -3.2564409652216082E-010
 -0.18950000000000000         -4.0612241815909524E-010
 -0.18900000000000000         -4.7198969111552410E-010
 -0.18850000000000000         -5.1296483509278483E-010
 -0.18800000000000000         -5.1505969398855091E-010
 -0.18750000000000000         -4.6112282208587142E-010
 -0.18700000000000000         -3.3213411295200963E-010
 -0.18650000000000000         -1.0915761313055464E-010
 -0.18600000000000000          2.2427724781771828E-010
 -0.18550000000000000          6.7968962986133099E-010
 -0.18500000000000000          1.2614395549602733E-009
 -0.18450000000000000          1.9651772931640119E-009
 -0.18400000000000000          2.7772525452012933E-009
 -0.18350000000000000          3.6752637507288002E-009
 -0.18300000000000000          4.6297580186660896E-009
 -0.18250000000000000          5.6069264513283601E-009
 -0.18200000000000000          6.5719686408560874E-009
 -0.18149999999999999          7.4926919261508724E-009
 -0.18099999999999999          8.3428663838132081E-009
 -0.18049999999999999          9.1048749861769858E-009
 -0.17999999999999999          9.7713112708273617E-009
 -0.17949999999999999          1.0345309856619311E-008
 -0.17899999999999999          1.0839623531546191E-008
 -0.17849999999999999          1.1274613638942910E-008
 -0.17799999999999999          1.1675503366124160E-008
 -0.17749999999999999          1.2069335834952548E-008
 -0.17699999999999999          1.2482100516854749E-008
 -0.17649999999999999          1.2936471417271818E-008
 -0.17599999999999999          1.3450434384400256E-008
 -0.17549999999999999          1.4036952428735679E-008
 -0.17499999999999999          1.4704629141843342E-008
 -0.17449999999999999          1.5459141699671169E-008
 -0.17399999999999999          1.6305114639702379E-008
 -0.17349999999999999          1.7248027197137259E-008
 -0.17299999999999999          1.8295760052165580E-008
 -0.17249999999999999          1.9459474769988473E-008
 -0.17199999999999999          2.0753631609710330E-008
 -0.17149999999999999          2.2195159857963824E-008
 -0.17099999999999999          2.3801892496058919E-008
 -0.17049999999999998          2.5590586568820063E-008
 -0.16999999999999998          2.7574816423558747E-008
 -0.16949999999999998          2.9763147019811985E-008
 -0.16899999999999998          3.2157964661836834E-008
 -0.16849999999999998          3.4755149332779731E-008
 -0.16799999999999998          3.7544703976492706E-008
 -0.16749999999999998          4.0512266721098151E-008
 -0.16699999999999998          4.3641352908144316E-008
 -0.16649999999999998          4.6916044212702648E-008
 -0.16599999999999998          5.0323730602355398E-008
 -0.16549999999999998          5.3857577270868655E-008
 -0.16499999999999998          5.7518402679412964E-008
 -0.16449999999999998          6.1315713755947467E-008
 -0.16399999999999998          6.5267868833292561E-008
 -0.16349999999999998          6.9401350629822332E-008
 -0.16299999999999998          7.3749212027468070E-008
 -0.16249999999999998          7.8348956945302475E-008
 -0.16199999999999998          8.3240251263635293E-008
 -0.16149999999999998          8.8462668525317396E-008
 -0.16099999999999998          9.4053716383522495E-008
 -0.16049999999999998          1.0004752292694783E-007
 -0.15999999999999998          1.0647427784406071E-007
 -0.15949999999999998          1.1336044604175945E-007
 -0.15899999999999997          1.2072974404865240E-007
 -0.15849999999999997          1.2860467899152107E-007
 -0.15799999999999997          1.3700852364159540E-007
 -0.15749999999999997          1.4596728335399229E-007
 -0.15699999999999997          1.5551135006342130E-007
 -0.15649999999999997          1.6567660030642538E-007
 -0.15599999999999997          1.7650469017220015E-007
 -0.15549999999999997          1.8804236302770261E-007
 -0.15499999999999997          2.0033995667102623E-007
 -0.15449999999999997          2.1344947039544263E-007
 -0.15399999999999997          2.2742229863961467E-007
 -0.15349999999999997          2.4230695729161505E-007
 -0.15299999999999997          2.5814766462521653E-007
 -0.15249999999999997          2.7498400245212433E-007
 -0.15200000000000000          2.9285156784933190E-007
 -0.15150000000000000          3.1178424344184922E-007
 -0.15100000000000000          3.3181728960432394E-007
 -0.15049999999999999          3.5299122318687868E-007
 -0.14999999999999999          3.7535622286869852E-007
 -0.14949999999999999          3.9897532055582266E-007
 -0.14899999999999999          4.2392694888278325E-007
 -0.14849999999999999          4.5030592396926641E-007
 -0.14799999999999999          4.7822201007419346E-007
 -0.14749999999999999          5.0779750480530840E-007
 -0.14699999999999999          5.3916287571725423E-007
 -0.14649999999999999          5.7245198602362367E-007
 -0.14599999999999999          6.0779785090381969E-007
 -0.14549999999999999          6.4532877767231523E-007
 -0.14499999999999999          6.8516651531160182E-007
 -0.14449999999999999          7.2742664935496738E-007
 -0.14399999999999999          7.7222130653905970E-007
 -0.14349999999999999          8.1966404847893328E-007
 -0.14299999999999999          8.6987537233280173E-007
 -0.14249999999999999          9.2298844163182241E-007
 -0.14199999999999999          9.7915485040668952E-007
 -0.14149999999999999          1.0385491552954870E-006
 -0.14099999999999999          1.1013693834429164E-006
 -0.14049999999999999          1.1678353599333635E-006
 -0.13999999999999999          1.2381866146481198E-006
 -0.13949999999999999          1.3126753019173896E-006
 -0.13899999999999998          1.3915610285963663E-006
 -0.13849999999999998          1.4751064151172147E-006
 -0.13799999999999998          1.5635723482051175E-006
 -0.13749999999999998          1.6572178380049146E-006
 -0.13699999999999998          1.7563008667261177E-006
 -0.13649999999999998          1.8610823673208154E-006
 -0.13599999999999998          1.9718313672418451E-006
 -0.13550000000000001          2.0888333720284622E-006
 -0.13500000000000001          2.2123979356184217E-006
 -0.13450000000000001          2.3428620028973917E-006
 -0.13400000000000001          2.4805942659890663E-006
 -0.13350000000000001          2.6259956102279754E-006
 -0.13300000000000001          2.7794981518465798E-006
 -0.13250000000000001          2.9415629224390188E-006
 -0.13200000000000001          3.1126740385509906E-006
 -0.13150000000000001          3.2933364408502668E-006
 -0.13100000000000001          3.4840732538780687E-006
 -0.13050000000000000          3.6854223582848440E-006
 -0.13000000000000000          3.8979387865260916E-006
 -0.12950000000000000          4.1221983277782349E-006
 -0.12900000000000000          4.3588031849446368E-006
 -0.12850000000000000          4.6083872482089759E-006
 -0.12800000000000000          4.8716155662371142E-006
 -0.12750000000000000          5.1491953270880536E-006
 -0.12700000000000000          5.4418753482409719E-006
 -0.12650000000000000          5.7504432658143101E-006
 -0.12600000000000000          6.0757253835772432E-006
 -0.12550000000000000          6.4185870710879305E-006
 -0.12499999999999999          6.7799295366657947E-006
 -0.12449999999999999          7.1606847135330249E-006
 -0.12399999999999999          7.5618221383615609E-006
 -0.12349999999999998          7.9843462320796210E-006
 -0.12299999999999998          8.4293008619053710E-006
 -0.12249999999999998          8.8977777802836460E-006
 -0.12199999999999998          9.3909288273998637E-006
 -0.12149999999999998          9.9099696909483380E-006
 -0.12099999999999998          1.0456182313451709E-005
 -0.12049999999999998          1.1030921361535318E-005
 -0.12000000000000000          1.1635611201623096E-005
 -0.11950000000000000          1.2271756985272322E-005
 -0.11899999999999999          1.2940936872597130E-005
 -0.11849999999999999          1.3644791575463539E-005
 -0.11799999999999999          1.4385040421202584E-005
 -0.11749999999999999          1.5163472054614514E-005
 -0.11699999999999999          1.5981942995113360E-005
 -0.11649999999999999          1.6842381917972137E-005
 -0.11599999999999999          1.7746797821811145E-005
 -0.11549999999999999          1.8697288542212432E-005
 -0.11499999999999999          1.9696036538378147E-005
 -0.11449999999999999          2.0745316096003321E-005
 -0.11399999999999999          2.1847511368503178E-005
 -0.11349999999999999          2.3005123902128145E-005
 -0.11299999999999999          2.4220764004903215E-005
 -0.11249999999999999          2.5497171049382805E-005
 -0.11199999999999999          2.6837218359150789E-005
 -0.11149999999999999          2.8243888229719675E-005
 -0.11099999999999999          2.9720271271423530E-005
 -0.11049999999999999          3.1269574641612751E-005
 -0.10999999999999999          3.2895122463076744E-005
 -0.10949999999999999          3.4600382397075763E-005
 -0.10899999999999999          3.6388965101193892E-005
 -0.10849999999999999          3.8264621794417765E-005
 -0.10799999999999998          4.0231300731223020E-005
 -0.10749999999999998          4.2293137358129763E-005
 -0.10699999999999998          4.4454449847333813E-005
 -0.10649999999999998          4.6719764352790342E-005
 -0.10599999999999998          4.9093787585895155E-005
 -0.10549999999999998          5.1581451637069763E-005
 -0.10499999999999998          5.4187877947645019E-005
 -0.10449999999999998          5.6918307928270040E-005
 -0.10399999999999998          5.9778194090853872E-005
 -0.10349999999999998          6.2773219239278821E-005
 -0.10299999999999998          6.5909242678863382E-005
 -0.10249999999999998          6.9192346240365600E-005
 -0.10199999999999998          7.2628889550494094E-005
 -0.10149999999999998          7.6225512135122745E-005
 -0.10099999999999998          7.9989155061449882E-005
 -0.10049999999999998          8.3927031367095713E-005
  -9.9999999999999978E-002     8.8046655713642282E-005
  -9.9499999999999977E-002     9.2355829494997557E-005
  -9.8999999999999977E-002     9.6862597545381579E-005
  -9.8499999999999976E-002     1.0157533258413401E-004
  -9.7999999999999976E-002     1.0650271251574102E-004
  -9.7499999999999976E-002     1.1165374090160199E-004
  -9.6999999999999975E-002     1.1703774047953236E-004
  -9.6499999999999975E-002     1.2266432433081947E-004
  -9.5999999999999974E-002     1.2854344130830338E-004
  -9.5500000000000002E-002     1.3468543903664428E-004
  -9.5000000000000001E-002     1.4110110588842376E-004
  -9.4500000000000001E-002     1.4780166647362480E-004
  -9.4000000000000000E-002     1.5479874033036092E-004
  -9.3500000000000000E-002     1.6210438252286689E-004
  -9.2999999999999999E-002     1.6973113999048273E-004
  -9.2499999999999999E-002     1.7769202495557284E-004
  -9.1999999999999998E-002     1.8600053200421094E-004
  -9.1499999999999998E-002     1.9467063454856542E-004
  -9.0999999999999998E-002     2.0371669332137102E-004
  -9.0499999999999997E-002     2.1315342449091895E-004
  -8.9999999999999997E-002     2.2299616466113151E-004
  -8.9499999999999996E-002     2.3326069428663003E-004
  -8.8999999999999996E-002     2.4396321815385499E-004
  -8.8499999999999995E-002     2.5512061664589777E-004
  -8.7999999999999995E-002     2.6675048114466443E-004
  -8.7499999999999994E-002     2.7887101840450793E-004
  -8.6999999999999994E-002     2.9150105552545706E-004
  -8.6499999999999994E-002     3.0466025419338932E-004
  -8.5999999999999993E-002     3.1836902280692376E-004
  -8.5499999999999993E-002     3.3264826555592594E-004
  -8.4999999999999992E-002     3.4751944647207266E-004
  -8.4499999999999992E-002     3.6300464475452727E-004
  -8.3999999999999991E-002     3.7912663956227247E-004
  -8.3499999999999991E-002     3.9590879519173938E-004
  -8.2999999999999990E-002     4.1337519884834470E-004
  -8.2499999999999990E-002     4.3155056430575702E-004
  -8.1999999999999990E-002     4.5046054582175018E-004
  -8.1499999999999989E-002     4.7013200015257755E-004
  -8.0999999999999989E-002     4.9059242165097941E-004
  -8.0499999999999988E-002     5.1186989491530915E-004
  -7.9999999999999988E-002     5.3399379596835944E-004
  -7.9499999999999987E-002     5.5699447928147659E-004
  -7.8999999999999987E-002     5.8090300507202073E-004
  -7.8499999999999986E-002     6.0575181848939895E-004
  -7.7999999999999986E-002     6.3157421306673047E-004
  -7.7499999999999986E-002     6.5840434604674553E-004
  -7.6999999999999985E-002     6.8627704827627285E-004
  -7.6499999999999985E-002     7.1522772135753656E-004
  -7.5999999999999984E-002     7.4529285140872590E-004
  -7.5499999999999984E-002     7.7650961962934706E-004
  -7.4999999999999983E-002     8.0891653289626143E-004
  -7.4499999999999983E-002     8.4255347062967305E-004
  -7.3999999999999982E-002     8.7746162988249009E-004
  -7.3499999999999982E-002     9.1368425029874798E-004
  -7.2999999999999982E-002     9.5126496630694793E-004
  -7.2499999999999981E-002     9.9024807459448727E-004
  -7.1999999999999981E-002     1.0306801832672065E-003
  -7.1499999999999980E-002     1.0726092972807521E-003
  -7.0999999999999980E-002     1.1160837610490371E-003
  -7.0499999999999979E-002     1.1611531856732173E-003
  -6.9999999999999979E-002     1.2078686734719177E-003
  -6.9499999999999978E-002     1.2562820204015277E-003
  -6.8999999999999978E-002     1.3064460427846206E-003
  -6.8499999999999978E-002     1.3584144786624353E-003
  -6.7999999999999977E-002     1.4122418960984095E-003
  -6.7499999999999977E-002     1.4679857399337954E-003
  -6.6999999999999976E-002     1.5257049963303545E-003
  -6.6499999999999976E-002     1.5854601182328052E-003
  -6.5999999999999975E-002     1.6473141798814368E-003
  -6.5499999999999975E-002     1.7113308250344067E-003
  -6.4999999999999974E-002     1.7775745368805431E-003
  -6.4499999999999974E-002     1.8461122884558170E-003
  -6.4000000000000001E-002     1.9170133414783842E-003
  -6.3500000000000001E-002     1.9903471081004088E-003
  -6.3000000000000000E-002     2.0661839398603320E-003
  -6.2500000000000000E-002     2.1445937713872277E-003
  -6.2000000000000000E-002     2.2256485229717408E-003
  -6.1499999999999999E-002     2.3094232974877377E-003
  -6.0999999999999999E-002     2.3959947359179406E-003
  -6.0499999999999998E-002     2.4854405766111783E-003
  -5.9999999999999998E-002     2.5778404268577233E-003
  -5.9499999999999997E-002     2.6732749335860654E-003
  -5.8999999999999997E-002     2.7718278744219629E-003
  -5.8499999999999996E-002     2.8735847685827298E-003
  -5.7999999999999996E-002     2.9786313363384790E-003
  -5.7499999999999996E-002     3.0870554907329248E-003
  -5.6999999999999995E-002     3.1989469368790295E-003
  -5.6499999999999995E-002     3.3143979363970139E-003
  -5.5999999999999994E-002     3.4335004759722216E-003
  -5.5499999999999994E-002     3.5563469615178169E-003
  -5.4999999999999993E-002     3.6830315438094296E-003
  -5.4499999999999993E-002     3.8136527216530765E-003
  -5.3999999999999992E-002     3.9483132802189385E-003
  -5.3499999999999992E-002     4.0871121524476747E-003
  -5.2999999999999992E-002     4.2301492310784124E-003
  -5.2499999999999991E-002     4.3775265073062921E-003
  -5.1999999999999991E-002     4.5293455055391164E-003
  -5.1499999999999990E-002     4.6857131308020794E-003
  -5.0999999999999990E-002     4.8467383875669887E-003
  -5.0499999999999989E-002     5.0125294322941249E-003
  -4.9999999999999989E-002     5.1831937855649508E-003
  -4.9499999999999988E-002     5.3588434081344328E-003
  -4.8999999999999988E-002     5.5395949697050768E-003
  -4.8499999999999988E-002     5.7255643045802419E-003
  -4.7999999999999987E-002     5.9168656011679664E-003
  -4.7499999999999987E-002     6.1136198237503082E-003
  -4.6999999999999986E-002     6.3159424834504348E-003
  -4.6499999999999986E-002     6.5239508985834305E-003
  -4.5999999999999985E-002     6.7377639604823108E-003
  -4.5499999999999985E-002     6.9574918918425188E-003
  -4.4999999999999984E-002     7.1832541004323873E-003
  -4.4499999999999984E-002     7.4151749932864688E-003
  -4.3999999999999984E-002     7.6533779830069357E-003
  -4.3499999999999983E-002     7.8979856431533775E-003
  -4.2999999999999983E-002     8.1491284296158015E-003
  -4.2499999999999982E-002     8.4069399307622594E-003
  -4.1999999999999982E-002     8.6715485410369560E-003
  -4.1499999999999981E-002     8.9430771525231025E-003
  -4.0999999999999981E-002     9.2216516285220512E-003
  -4.0499999999999980E-002     9.5073961324965324E-003
  -3.9999999999999980E-002     9.8004280852637127E-003
  -3.9499999999999980E-002     1.0100873829671436E-002
  -3.8999999999999979E-002     1.0408864169884856E-002
  -3.8499999999999979E-002     1.0724527776606761E-002
  -3.7999999999999978E-002     1.1047985194140960E-002
  -3.7499999999999978E-002     1.1379368777395130E-002
  -3.6999999999999977E-002     1.1718811006283011E-002
  -3.6499999999999977E-002     1.2066428798459291E-002
  -3.5999999999999976E-002     1.2422345309385312E-002
  -3.5499999999999976E-002     1.2786684236450501E-002
  -3.4999999999999976E-002     1.3159565343357917E-002
  -3.4499999999999975E-002     1.3541096966697256E-002
  -3.3999999999999975E-002     1.3931389337503750E-002
  -3.3499999999999974E-002     1.4330566017752594E-002
  -3.2999999999999974E-002     1.4738733822263698E-002
  -3.2499999999999973E-002     1.5156006245065363E-002
  -3.1999999999999973E-002     1.5582505095361215E-002
  -3.1500000000000000E-002     1.6018345449321729E-002
  -3.1000000000000000E-002     1.6463643876868463E-002
  -3.0499999999999999E-002     1.6918520746590067E-002
  -2.9999999999999999E-002     1.7383099191060049E-002
  -2.9499999999999998E-002     1.7857467905117178E-002
  -2.8999999999999998E-002     1.8341717534049246E-002
  -2.8499999999999998E-002     1.8835946786523571E-002
  -2.7999999999999997E-002     1.9340228181626645E-002
  -2.7499999999999997E-002     1.9854625483945138E-002
  -2.6999999999999996E-002     2.0379188104759187E-002
  -2.6499999999999996E-002     2.0913985543559051E-002
  -2.5999999999999995E-002     2.1459096339172954E-002
  -2.5499999999999995E-002     2.2014588840947379E-002
  -2.4999999999999994E-002     2.2580535048866601E-002
  -2.4499999999999994E-002     2.3157015816530051E-002
  -2.3999999999999994E-002     2.3744122268941445E-002
  -2.3499999999999993E-002     2.4341907863159259E-002
  -2.2999999999999993E-002     2.4950407946318854E-002
  -2.2499999999999992E-002     2.5569680759767302E-002
  -2.1999999999999992E-002     2.6199772327502591E-002
  -2.1499999999999991E-002     2.6840686604722743E-002
  -2.0999999999999991E-002     2.7492419751354236E-002
  -2.0499999999999990E-002     2.8154973726561797E-002
  -1.9999999999999990E-002     2.8828304595695103E-002
  -1.9499999999999990E-002     2.9512378782804008E-002
  -1.8999999999999989E-002     3.0207199781872814E-002
  -1.8499999999999989E-002     3.0912761968323474E-002
  -1.7999999999999988E-002     3.1629040055969948E-002
  -1.7499999999999988E-002     3.2355994467329105E-002
  -1.6999999999999987E-002     3.3093578994127008E-002
  -1.6499999999999987E-002     3.3841765624642264E-002
  -1.5999999999999986E-002     3.4600522646653524E-002
  -1.5499999999999986E-002     3.5369790708046710E-002
  -1.4999999999999986E-002     3.6149503052207821E-002
  -1.4499999999999985E-002     3.6939591996099495E-002
  -1.3999999999999985E-002     3.7739953050974599E-002
  -1.3499999999999984E-002     3.8550430067453866E-002
  -1.2999999999999984E-002     3.9370851956186038E-002
  -1.2499999999999983E-002     4.0201022351521939E-002
  -1.1999999999999983E-002     4.1040695911127460E-002
  -1.1499999999999982E-002     4.1889689402288488E-002
  -1.0999999999999982E-002     4.2747866641261935E-002
  -1.0499999999999982E-002     4.3615079547217800E-002
  -9.9999999999999811E-003     4.4491167982615910E-002
  -9.4999999999999807E-003     4.5375945344731126E-002
  -8.9999999999999802E-003     4.6269251764244158E-002
  -8.4999999999999798E-003     4.7170909324001246E-002
  -7.9999999999999793E-003     4.8080685300829575E-002
  -7.4999999999999789E-003     4.8998299439923183E-002
  -6.9999999999999785E-003     4.9923473345689182E-002
  -6.4999999999999780E-003     5.0855905479947651E-002
  -5.9999999999999776E-003     5.1795238507030363E-002
  -5.4999999999999771E-003     5.2741056413115536E-002
  -4.9999999999999767E-003     5.3692906888223722E-002
  -4.4999999999999762E-003     5.4650450654093408E-002
  -3.9999999999999758E-003     5.5613330206085332E-002
  -3.4999999999999754E-003     5.6581112157068666E-002
  -2.9999999999999749E-003     5.7553449115416135E-002
  -2.4999999999999745E-003     5.8529989145007733E-002
  -1.9999999999999740E-003     5.9510363445402434E-002
  -1.4999999999999736E-003     6.0494199767804305E-002
  -9.9999999999997313E-004     6.1481088672015724E-002
  -4.9999999999997269E-004     6.2470543429264655E-002
   0.0000000000000000          6.3462005816046343E-002
   5.0000000000000044E-004     6.4454897176654438E-002
   1.0000000000000009E-003     6.5448709830515761E-002
   1.5000000000000013E-003     6.6442869701005700E-002
   2.0000000000000018E-003     6.7436679779720232E-002
   2.5000000000000022E-003     6.8429491798236819E-002
   3.0000000000000027E-003     6.9420601778472035E-002
   3.5000000000000031E-003     7.0409401939541941E-002
   4.0000000000000036E-003     7.1395353286308597E-002
   4.5000000000000040E-003     7.2377868077511037E-002
   5.0000000000000044E-003     7.3356398506999959E-002
   5.5000000000000049E-003     7.4330332793967738E-002
   6.0000000000000053E-003     7.5298979023677853E-002
   6.5000000000000058E-003     7.6261617553313094E-002
   7.0000000000000062E-003     7.7217510157947006E-002
   7.5000000000000067E-003     7.8165880744830038E-002
   8.0000000000000071E-003     7.9105926674748361E-002
   8.5000000000000075E-003     8.0036716637774133E-002
   9.0000000000000080E-003     8.0957332798963569E-002
   9.5000000000000084E-003     8.1866905506593521E-002
   1.0000000000000009E-002     8.2764573126758639E-002
   1.0500000000000009E-002     8.3649502672990386E-002
   1.1000000000000010E-002     8.4520868002878558E-002
   1.1500000000000010E-002     8.5377788271488661E-002
   1.2000000000000011E-002     8.6219370567016590E-002
   1.2500000000000011E-002     8.7044928504771135E-002
   1.3000000000000012E-002     8.7853627205204884E-002
   1.3500000000000012E-002     8.8644509972591365E-002
   1.4000000000000012E-002     8.9416787368428188E-002
   1.4500000000000013E-002     9.0169556883660587E-002
   1.5000000000000013E-002     9.0901692473574963E-002
   1.5500000000000014E-002     9.1611996273924495E-002
   1.6000000000000014E-002     9.2299346845445218E-002
   1.6500000000000015E-002     9.2962485240416920E-002
   1.7000000000000015E-002     9.3600303567260179E-002
   1.7500000000000016E-002     9.4211826359027556E-002
   1.8000000000000016E-002     9.4796118707835747E-002
   1.8500000000000016E-002     9.5352326889043076E-002
   1.9000000000000017E-002     9.5879351051647577E-002
   1.9500000000000017E-002     9.6376267937132609E-002
   2.0000000000000018E-002     9.6842096119261228E-002
   2.0500000000000018E-002     9.7275771823193552E-002
   2.1000000000000019E-002     9.7676282807361930E-002
   2.1500000000000019E-002     9.8042427190345449E-002
   2.2000000000000020E-002     9.8373156999126132E-002
   2.2500000000000020E-002     9.8667289388470553E-002
   2.3000000000000020E-002     9.8923422412974527E-002
   2.3500000000000021E-002     9.9140324144605801E-002
   2.4000000000000021E-002     9.9316797316695682E-002
   2.4500000000000022E-002     9.9451777105269784E-002
   2.5000000000000022E-002     9.9544267065344277E-002
   2.5500000000000023E-002     9.9593308449975215E-002
   2.6000000000000023E-002     9.9597832402392561E-002
   2.6500000000000024E-002     9.9556860881178988E-002
   2.7000000000000024E-002     9.9469395274630529E-002
   2.7500000000000024E-002     9.9334205559081595E-002
   2.8000000000000025E-002     9.9150315546367745E-002
   2.8500000000000025E-002     9.8916798350938195E-002
   2.9000000000000026E-002     9.8632800459022646E-002
   2.9500000000000026E-002     9.8297258945144655E-002
   3.0000000000000027E-002     9.7908749930475575E-002
   3.0500000000000027E-002     9.7466158263678049E-002
   3.1000000000000028E-002     9.6968582472813813E-002
   3.1500000000000028E-002     9.6414809361332010E-002
   3.2000000000000028E-002     9.5803542507708755E-002