 -0.23999999999999999          0.0000000000000000     
 -0.23949999999999999          3.3276070870916936E-008
 -0.23899999999999999          9.3494993848034304E-008
 -0.23849999999999999          1.6698333706185946E-007
 -0.23799999999999999          2.3510107742366182E-007
 -0.23749999999999999          2.7757244022048509E-007
 -0.23699999999999999          2.7624124989273760E-007
 -0.23649999999999999          2.1863012430798856E-007
 -0.23599999999999999          1.0070529829868589E-007
 -0.23549999999999999         -7.1646888208659708E-008
 -0.23499999999999999         -2.8273276529246567E-007
 -0.23449999999999999         -5.0879693191356346E-007
 -0.23399999999999999         -7.2117214117473467E-007
 -0.23349999999999999         -8.9036186812026506E-007
 -0.23299999999999998         -9.9040423293137919E-007
 -0.23249999999999998         -1.0027786705503475E-006
 -0.23199999999999998         -9.1919613820356848E-007
 -0.23149999999999998         -7.4276649095598394E-007
 -0.23099999999999998         -4.8734484923499482E-007
 -0.23049999999999998         -1.7514710452853586E-007
 -0.22999999999999998          1.6688453180591791E-007
 -0.22949999999999998          5.1128835415288392E-007
 -0.22899999999999998          8.3402279817297968E-007
 -0.22849999999999998          1.1173624474360330E-006
 -0.22799999999999998          1.3511432852142520E-006
 -0.22749999999999998          1.5321220847054380E-006
 -0.22699999999999998          1.6616066895789524E-006
 -0.22649999999999998          1.7419111401683558E-006
 -0.22599999999999998          1.7724958259686262E-006
 -0.22549999999999998          1.7468220421469129E-006
 -0.22499999999999998          1.6507900721144375E-006
 -0.22449999999999998          1.4634019644830377E-006
 -0.22399999999999998          1.1598235592287013E-006
 -0.22349999999999998          7.1641524570082168E-007
 -0.22299999999999998          1.1687993655384335E-007
 -0.22249999999999998         -6.4172906471986208E-007
 -0.22199999999999998         -1.5445379037293180E-006
 -0.22150000000000000         -2.5570659830216955E-006
 -0.22100000000000000         -3.6269380922110472E-006
 -0.22050000000000000         -4.6891719526170337E-006
 -0.22000000000000000         -5.6743436236312255E-006
 -0.21950000000000000         -6.5184165754643721E-006
 -0.21900000000000000         -7.1725373572454772E-006
 -0.21850000000000000         -7.6106311947715673E-006
 -0.21800000000000000         -7.8336124931589501E-006
 -0.21750000000000000         -7.8690002902088584E-006
 -0.21700000000000000         -7.7657049302894963E-006
 -0.21650000000000000         -7.5850286973854911E-006
 -0.21600000000000000         -7.3894545438583867E-006
 -0.21550000000000000         -7.2312672409351416E-006
 -0.21500000000000000         -7.1435145105804681E-006
 -0.21450000000000000         -7.1350570914012293E-006
 -0.21400000000000000         -7.1909077185366499E-006
 -0.21350000000000000         -7.2777924783299372E-006
 -0.21299999999999999         -7.3541582672510751E-006
 -0.21249999999999999         -7.3821308868623122E-006
 -0.21199999999999999         -7.3391731691324645E-006
 -0.21149999999999999         -7.2265585707212535E-006
 -0.21099999999999999         -7.0729207667784366E-006
 -0.21049999999999999         -6.9312143631423392E-006
 -0.20999999999999999         -6.8697117239131980E-006
 -0.20949999999999999         -6.9588566490130394E-006
 -0.20899999999999999         -7.2559189762344914E-006
 -0.20849999999999999         -7.7918197606948188E-006
 -0.20799999999999999         -8.5615527206007894E-006
 -0.20749999999999999         -9.5223920843377088E-006
 -0.20699999999999999         -1.0599527179151263E-005
 -0.20649999999999999         -1.1699073354270603E-005
 -0.20599999999999999         -1.2726431758668877E-005
 -0.20549999999999999         -1.3605587636524296E-005
 -0.20499999999999999         -1.4297140893770980E-005
 -0.20449999999999999         -1.4808886449156098E-005
 -0.20399999999999999         -1.5198798394105052E-005
 -0.20349999999999999         -1.5568082277037652E-005
 -0.20299999999999999         -1.6044728784126821E-005
 -0.20249999999999999         -1.6761749146140397E-005
 -0.20199999999999999         -1.7833565239446710E-005
 -0.20149999999999998         -1.9334351088393148E-005
 -0.20099999999999998         -2.1284072930370728E-005
 -0.20049999999999998         -2.3643947917959794E-005
 -0.19999999999999998         -2.6323869028583529E-005
 -0.19949999999999998         -2.9199123844834950E-005
 -0.19899999999999998         -3.2133297927664031E-005
 -0.19849999999999998         -3.5005519009713849E-005
 -0.19799999999999998         -3.7731871936534099E-005
 -0.19749999999999998         -4.0282492537724397E-005
 -0.19699999999999998         -4.2685574373311156E-005
 -0.19649999999999998         -4.5021821386224554E-005
 -0.19600000000000001         -4.7406562229022534E-005
 -0.19550000000000001         -4.9968291970102765E-005
 -0.19500000000000001         -5.2823061365247741E-005
 -0.19450000000000001         -5.6053505462603536E-005
 -0.19400000000000001         -5.9693624207687437E-005
 -0.19350000000000001         -6.3727044325088747E-005
 -0.19300000000000000         -6.8094025685530406E-005
 -0.19250000000000000         -7.2711051173578073E-005
 -0.19200000000000000         -7.7489020190249608E-005
 -0.19150000000000000         -8.2361446854716051E-005
 -0.19100000000000000         -8.7303702525013031E-005
 -0.19050000000000000         -9.2336146083332705E-005
 -0.19000000000000000         -9.7535610687199940E-005
 -0.18950000000000000         -1.0301133574104889E-004
 -0.18900000000000000         -1.0889670889766386E-004
 -0.18850000000000000         -1.1531751475629749E-004
 -0.18800000000000000         -1.2237559316522438E-004
 -0.18750000000000000         -1.3012800094987009E-004
 -0.18700000000000000         -1.3857964833077440E-004
 -0.18650000000000000         -1.4769029234779852E-004
 -0.18600000000000000         -1.5738689829795032E-004
 -0.18550000000000000         -1.6758185231404381E-004
 -0.18500000000000000         -1.7820235158564037E-004
 -0.18450000000000000         -1.8920524258148584E-004
 -0.18400000000000000         -2.0059672740881958E-004
 -0.18350000000000000         -2.1243073384846360E-004
 -0.18300000000000000         -2.2480428467554502E-004
 -0.18250000000000000         -2.3783995786150951E-004
 -0.18200000000000000         -2.5166715791916371E-004
 -0.18149999999999999         -2.6640566573441941E-004
 -0.18099999999999999         -2.8213863425559691E-004
 -0.18049999999999999         -2.9891468655496333E-004
 -0.17999999999999999         -3.1674073486871968E-004
 -0.17949999999999999         -3.3560527451482862E-004
 -0.17899999999999999         -3.5548266958939463E-004
 -0.17849999999999999         -3.7635866618002318E-004
 -0.17799999999999999         -3.9825062099066140E-004
 -0.17749999999999999         -4.2123562893557382E-004
 -0.17699999999999999         -4.4541101457720126E-004
 -0.17649999999999999         -4.7092452059814983E-004
 -0.17599999999999999         -4.9793663388916212E-004
 -0.17549999999999999         -5.2660994755628630E-004
 -0.17499999999999999         -5.5708736284174195E-004
 -0.17449999999999999         -5.8945724364032519E-004
 -0.17399999999999999         -6.2377193922431059E-004
 -0.17349999999999999         -6.6005189150076745E-004
 -0.17299999999999999         -6.9827662504891004E-004
 -0.17249999999999999         -7.3844607149652769E-004
 -0.17199999999999999         -7.8055986826339511E-004
 -0.17149999999999999         -8.2470324141812592E-004
 -0.17099999999999999         -8.7096939197756572E-004
 -0.17049999999999998         -9.1955431362997328E-004
 -0.16999999999999998         -9.7067501783418123E-004
 -0.16949999999999998         -1.0245759613283761E-003
 -0.16899999999999998         -1.0815171770125439E-003
 -0.16849999999999998         -1.1417168377613510E-003
 -0.16799999999999998         -1.2053519415070552E-003
 -0.16749999999999998         -1.2725617882564559E-003
 -0.16699999999999998         -1.3434168524847508E-003
 -0.16649999999999998         -1.4179475369082168E-003
 -0.16599999999999998         -1.4962147944398247E-003
 -0.16549999999999998         -1.5783054887638483E-003
 -0.16499999999999998         -1.6643303909837969E-003
 -0.16449999999999998         -1.7545179092855485E-003
 -0.16399999999999998         -1.8491193892825083E-003
 -0.16349999999999998         -1.9485516034233111E-003
 -0.16299999999999998         -2.0531595433985494E-003
 -0.16249999999999998         -2.1633870662061579E-003
 -0.16199999999999998         -2.2795852903250242E-003
 -0.16149999999999998         -2.4020883206316182E-003
 -0.16099999999999998         -2.5311152855809105E-003
 -0.16049999999999998         -2.6668708390848121E-003
 -0.15999999999999998         -2.8094938448639155E-003
 -0.15949999999999998         -2.9590961821473099E-003
 -0.15899999999999997         -3.1158425802316324E-003
 -0.15849999999999997         -3.2799201415520465E-003
 -0.15799999999999997         -3.4516867366385729E-003
 -0.15749999999999997         -3.6315084172479726E-003
 -0.15699999999999997         -3.8199243130074539E-003
 -0.15649999999999997         -4.0175504810808244E-003
 -0.15599999999999997         -4.2250410856598409E-003
 -0.15549999999999997         -4.4429832830277126E-003
 -0.15499999999999997         -4.6719668539078737E-003
 -0.15449999999999997         -4.9124266000874512E-003
 -0.15399999999999997         -5.1648838601461838E-003
 -0.15349999999999997         -5.4296625083814672E-003
 -0.15299999999999997         -5.7071408409190248E-003
 -0.15249999999999997         -5.9975439034790218E-003
 -0.15200000000000000         -6.3014315385878390E-003
 -0.15150000000000000         -6.6191713308813085E-003
 -0.15100000000000000         -6.9514320051051893E-003
 -0.15049999999999999         -7.2988210864053538E-003
 -0.14999999999999999         -7.6624404097593649E-003
 -0.14949999999999999         -8.0431623146972678E-003
 -0.14899999999999999         -8.4418317323674066E-003
 -0.14849999999999999         -8.8594854700948262E-003
 -0.14799999999999999         -9.2969649846482687E-003
 -0.14749999999999999         -9.7550161338643485E-003
 -0.14699999999999999         -1.0234363251239852E-002
 -0.14649999999999999         -1.0735820435841779E-002
 -0.14599999999999999         -1.1260052465026704E-002
 -0.14549999999999999         -1.1807567590291498E-002
 -0.14499999999999999         -1.2379316991979441E-002
 -0.14449999999999999         -1.2975973474076707E-002
 -0.14399999999999999         -1.3598893265353202E-002
 -0.14349999999999999         -1.4249425515487853E-002
 -0.14299999999999999         -1.4928612711930526E-002
 -0.14249999999999999         -1.5637704063068927E-002
 -0.14199999999999999         -1.6378794201437345E-002
 -0.14149999999999999         -1.7152814208610912E-002
 -0.14099999999999999         -1.7961374754029733E-002
 -0.14049999999999999         -1.8805576466725538E-002
 -0.13999999999999999         -1.9686740139036853E-002
 -0.13949999999999999         -2.0606096557356179E-002
 -0.13899999999999998         -2.1564852491691815E-002
 -0.13849999999999998         -2.2563815506502383E-002
 -0.13799999999999998         -2.3604986055382728E-002
 -0.13749999999999998         -2.4689459238610732E-002
 -0.13699999999999998         -2.5819635718099601E-002
 -0.13649999999999998         -2.6997046287195868E-002
 -0.13599999999999998         -2.8224065090483655E-002
 -0.13550000000000001         -2.9502366745210722E-002
 -0.13500000000000001         -3.0834637302767025E-002
 -0.13450000000000001         -3.2222547904164414E-002
 -0.13400000000000001         -3.3668731662788970E-002
 -0.13350000000000001         -3.5174401804839078E-002
 -0.13300000000000001         -3.6741655562858223E-002
 -0.13250000000000001         -3.8372893466251931E-002
 -0.13200000000000001         -4.0069322423923012E-002
 -0.13150000000000001         -4.1833569062075374E-002
 -0.13100000000000001         -4.3667145780257988E-002
 -0.13050000000000000         -4.5573797765464399E-002
 -0.13000000000000000         -4.7556248751293162E-002
 -0.12950000000000000         -4.9617389313244942E-002
 -0.12900000000000000         -5.1759395685583021E-002
 -0.12850000000000000         -5.3986314073227959E-002
 -0.12800000000000000         -5.6301075445248566E-002
 -0.12750000000000000         -5.8705225208307982E-002
 -0.12700000000000000         -6.1202555077515625E-002
 -0.12650000000000000         -6.3796098155075712E-002
 -0.12600000000000000         -6.6489299194477741E-002
 -0.12550000000000000         -6.9283424671780322E-002
 -0.12499999999999999         -7.2182863612972686E-002
 -0.12449999999999999         -7.5192328187124596E-002
 -0.12399999999999999         -7.8313669521334922E-002
 -0.12349999999999998         -8.1551382854922666E-002
 -0.12299999999999998         -8.4909465304351645E-002
 -0.12249999999999998         -8.8391505122426106E-002
 -0.12199999999999998         -9.2001431164679376E-002
 -0.12149999999999998         -9.5743177605377261E-002
 -0.12099999999999998         -9.9622559004679784E-002
 -0.12049999999999998        -0.10364032749472757     
 -0.12000000000000000        -0.10780307477428155     
 -0.11950000000000000        -0.11211291081217387     
 -0.11899999999999999        -0.11657640914114403     
 -0.11849999999999999        -0.12119827528965221     
 -0.11799999999999999        -0.12598200501955295     
 -0.11749999999999999        -0.13093364372872004     
 -0.11699999999999999        -0.13605644998364741     
 -0.11649999999999999        -0.14135725381283987     
 -0.11599999999999999        -0.14683942385958321     
 -0.11549999999999999        -0.15250840393823367     
 -0.11499999999999999        -0.15837112594078878     
 -0.11449999999999999        -0.16442940241370352     
 -0.11399999999999999        -0.17068932930045844     
 -0.11349999999999999        -0.17716263368252133     
 -0.11299999999999999        -0.18384605633139867     
 -0.11249999999999999        -0.19074931182146304     
 -0.11199999999999999        -0.19787503155261804     
 -0.11149999999999999        -0.20523326967988048     
 -0.11099999999999999        -0.21283034771834541     
 -0.11049999999999999        -0.22067068804754103     
 -0.10999999999999999        -0.22875902929618969     
 -0.10949999999999999        -0.23710732925260797     
 -0.10899999999999999        -0.24571590571880741     
 -0.10849999999999999        -0.25459422336700988     
 -0.10799999999999998        -0.26374759983587714     
 -0.10749999999999998        -0.27318086555973375     
 -0.10699999999999998        -0.28290670963048037     
 -0.10649999999999998        -0.29292471243839202     
 -0.10599999999999998        -0.30324688806817057     
 -0.10549999999999998        -0.31386593902072513     
 -0.10499999999999998        -0.32479689206010154     
 -0.10449999999999998        -0.33604597089298494     
 -0.10399999999999998        -0.34762763172320554     
 -0.10349999999999998        -0.35954656807691476     
 -0.10299999999999998        -0.37181616390376315     
 -0.10249999999999998        -0.38443360784730152     
 -0.10199999999999998        -0.39741382459205010     
 -0.10149999999999998        -0.41075434458987703     
 -0.10099999999999998        -0.42447184755548684     
 -0.10049999999999998        -0.43854763392323792     
  -9.9999999999999978E-002   -0.45301351251697908     
  -9.9499999999999977E-002   -0.46786232994701871     
  -9.8999999999999977E-002   -0.48311368299534163     
  -9.8499999999999976E-002   -0.49876188143962030     
  -9.7999999999999976E-002   -0.51482000394688532     
  -9.7499999999999976E-002   -0.53130665955137579     
  -9.6999999999999975E-002   -0.54822474170118873     
  -9.6499999999999975E-002   -0.56557580324357071     
  -9.5999999999999974E-002   -0.58338465543377627     
  -9.5500000000000002E-002   -0.60163732797399505     
  -9.5000000000000001E-002   -0.62034084051117189     
  -9.4500000000000001E-002   -0.63949674674056523     
  -9.4000000000000000E-002   -0.65912046388259826     
  -9.3500000000000000E-002   -0.67920292048308739     
  -9.2999999999999999E-002   -0.69975024790801399     
  -9.2499999999999999E-002   -0.72078996518498473     
  -9.1999999999999998E-002   -0.74230085086822606     
  -9.1499999999999998E-002   -0.76429338297654947     
  -9.0999999999999998E-002   -0.78677738124278296     
  -9.0499999999999997E-002   -0.80976947799269605     
  -8.9999999999999997E-002   -0.83331020879482809     
  -8.9499999999999996E-002   -0.85737913599933679     
  -8.8999999999999996E-002   -0.88198156735099387     
  -8.8499999999999995E-002   -0.90708243174090142     
  -8.7999999999999995E-002   -0.93273912630615241     
  -8.7499999999999994E-002   -0.95891105991487313     
  -8.6999999999999994E-002   -0.98561837627800664     
  -8.6499999999999994E-002    -1.0128407304427283     
  -8.5999999999999993E-002    -1.0405854301284263     
  -8.5499999999999993E-002    -1.0688564286884685     
  -8.4999999999999992E-002    -1.0976393260206589     
  -8.4499999999999992E-002    -1.1269503043481497     
  -8.3999999999999991E-002    -1.1568504387224330     
  -8.3499999999999991E-002    -1.1872837489424541     
  -8.2999999999999990E-002    -1.2182591124977362     
  -8.2499999999999990E-002    -1.2498020147442266     
  -8.1999999999999990E-002    -1.2818981487780712     
  -8.1499999999999989E-002    -1.3145782220660860     
  -8.0999999999999989E-002    -1.3477749801453709     
  -8.0499999999999988E-002    -1.3814595831208880     
  -7.9999999999999988E-002    -1.4157205102209960     
  -7.9499999999999987E-002    -1.4504857142226064     
  -7.8999999999999987E-002    -1.4857695653424856     
  -7.8499999999999986E-002    -1.5215448632378226     
  -7.7999999999999986E-002    -1.5577776615632128     
  -7.7499999999999986E-002    -1.5945239801395639     
  -7.6999999999999985E-002    -1.6317865256410724     
  -7.6499999999999985E-002    -1.6695047635818594     
  -7.5999999999999984E-002    -1.7077885461052995     
  -7.5499999999999984E-002    -1.7465000219218338     
  -7.4999999999999983E-002    -1.7856726709353250     
  -7.4499999999999983E-002    -1.8253799951634733     
  -7.3999999999999982E-002    -1.8654215320393659     
  -7.3499999999999982E-002    -1.9059426000883333     
  -7.2999999999999982E-002    -1.9468698051772586     
  -7.2499999999999981E-002    -1.9882173015394704     
  -7.1999999999999981E-002    -2.0298385580748448     
  -7.1499999999999980E-002    -2.0718377945884843     
  -7.0999999999999980E-002    -2.1141208837089209     
  -7.0499999999999979E-002    -2.1567476259377525     
  -6.9999999999999979E-002    -2.1996702148658445     
  -6.9499999999999978E-002    -2.2427494438439552     
  -6.8999999999999978E-002    -2.2861402556661234     
  -6.8499999999999978E-002    -2.3298170553271813     
  -6.7999999999999977E-002    -2.3737749013089369     
  -6.7499999999999977E-002    -2.4179335972516727     
  -6.6999999999999976E-002    -2.4623016288008923     
  -6.6499999999999976E-002    -2.5067327269165389     
  -6.5999999999999975E-002    -2.5512107786956264     
  -6.5499999999999975E-002    -2.5958308380829624     
  -6.4999999999999974E-002    -2.6404471864353320     
  -6.4499999999999974E-002    -2.6847830274974944     
  -6.4000000000000001E-002    -2.7291823447102583     
  -6.3500000000000001E-002    -2.7733816080002862     
  -6.3000000000000000E-002    -2.8174681662814054     
  -6.2500000000000000E-002    -2.8614986121719221     
  -6.2000000000000000E-002    -2.9053465463688966     
  -6.1499999999999999E-002    -2.9490269227795665     
  -6.0999999999999999E-002    -2.9926631547881026     
  -6.0499999999999998E-002    -3.0358689580509362     
  -5.9999999999999998E-002    -3.0786880576201217     
  -5.9499999999999997E-002    -3.1211905674631595     
  -5.8999999999999997E-002    -3.1630073354741732     
  -5.8499999999999996E-002    -3.2043195837912215     
  -5.7999999999999996E-002    -3.2449786350283727     
  -5.7499999999999996E-002    -3.2849454444505071     
  -5.6999999999999995E-002    -3.3242316307898907     
  -5.6499999999999995E-002    -3.3629295622089845     
  -5.5999999999999994E-002    -3.4009469987635654     
  -5.5499999999999994E-002    -3.4380191489591283     
  -5.4999999999999993E-002    -3.4742527436692949     
  -5.4499999999999993E-002    -3.5095938392371249     
  -5.3999999999999992E-002    -3.5438576553646168     
  -5.3499999999999992E-002    -3.5770290354734371     
  -5.2999999999999992E-002    -3.6092108969429173     
  -5.2499999999999991E-002    -3.6399468824136534     
  -5.1999999999999991E-002    -3.6691159500749535     
  -5.1499999999999990E-002    -3.6970840129093858     
  -5.0999999999999990E-002    -3.7237610678645385     
  -5.0499999999999989E-002    -3.7487880162328757     
  -4.9999999999999989E-002    -3.7723183014357300     
  -4.9499999999999988E-002    -3.7941067739934287     
  -4.8999999999999988E-002    -3.8141724343148660     
  -4.8499999999999988E-002    -3.8326499493392223     
  -4.7999999999999987E-002    -3.8492297578954098     
  -4.7499999999999987E-002    -3.8638061699549020     
  -4.6999999999999986E-002    -3.8764768751716669     
  -4.6499999999999986E-002    -3.8872388072004789     
  -4.5999999999999985E-002    -3.8958209586108676     
  -4.5499999999999985E-002    -3.9019480411686214     
  -4.4999999999999984E-002    -3.9054988549489291     
  -4.4499999999999984E-002    -3.9064789168607046     
  -4.3999999999999984E-002    -3.9051592776771251     
  -4.3499999999999983E-002    -3.9011725565457596     
  -4.2999999999999983E-002    -3.8940005699625537     
  -4.2499999999999982E-002    -3.8842440796276039     
  -4.1999999999999982E-002    -3.8719810816321996     
  -4.1499999999999981E-002    -3.8569232842625611     
  -4.0999999999999981E-002    -3.8390655362546617     
  -4.0499999999999980E-002    -3.8179553669913942     
  -3.9999999999999980E-002    -3.7938954019381228     
  -3.9499999999999980E-002    -3.7664024336594304     
  -3.8999999999999979E-002    -3.7356764484276193     
  -3.8499999999999979E-002    -3.7011635012411990     
  -3.7999999999999978E-002    -3.6631206153981912     
  -3.7499999999999978E-002    -3.6216710080802299     
  -3.6999999999999977E-002    -3.5762874487051493     
  -3.6499999999999977E-002    -3.5267287297107592     
  -3.5999999999999976E-002    -3.4734511029896167     
  -3.5499999999999976E-002    -3.4162547078460044     
  -3.4999999999999976E-002    -3.3553674600743908     
  -3.4499999999999975E-002    -3.2898812305218739     
  -3.3999999999999975E-002    -3.2209035203667087     
  -3.3499999999999974E-002    -3.1480736166605245     
  -3.2999999999999974E-002    -3.0710119973009533     
  -3.2499999999999973E-002    -2.9890037448288589     
  -3.1999999999999973E-002    -2.9022897500473412     
  -3.1500000000000000E-002    -2.8110916548484690     
  -3.1000000000000000E-002    -2.7150331857579362     
  -3.0499999999999999E-002    -2.6145282806696559     
  -2.9999999999999999E-002    -2.5088147105086986     
  -2.9499999999999998E-002    -2.3988136045207478     
  -2.8999999999999998E-002    -2.2842936589073406     
  -2.8499999999999998E-002    -2.1649615148017860     
  -2.7999999999999997E-002    -2.0407118134546938     
  -2.7499999999999997E-002    -1.9118883734987078     
  -2.6999999999999996E-002    -1.7774297612273724     
  -2.6499999999999996E-002    -1.6379581578480433     
  -2.5999999999999995E-002    -1.4929793274754566     
  -2.5499999999999995E-002    -1.3429686185773075     
  -2.4999999999999994E-002    -1.1880820927875355     
  -2.4499999999999994E-002    -1.0286870536411676     
  -2.3999999999999994E-002   -0.86333609271531575     
  -2.3499999999999993E-002   -0.69271164418795206     
  -2.2999999999999993E-002   -0.51712425544475149     
  -2.2499999999999992E-002   -0.33587257443415375     
  -2.1999999999999992E-002   -0.14878465882667768     
  -2.1499999999999991E-002     4.3845890515581409E-002
  -2.0999999999999991E-002    0.24102519460289340     
  -2.0499999999999990E-002    0.44413206319536780     
  -1.9999999999999990E-002    0.65224099454443074     
  -1.9499999999999990E-002    0.86524819045855672     
  -1.8999999999999989E-002     1.0834578563510107     
  -1.8499999999999989E-002     1.3067757048224466     
  -1.7999999999999988E-002     1.5351816834277283     
  -1.7499999999999988E-002     1.7683458327888486     
  -1.6999999999999987E-002     2.0071222548184204     
  -1.6499999999999987E-002     2.2501338189120950     
  -1.5999999999999986E-002     2.4995662391295466     
  -1.5499999999999986E-002     2.7537301273890202     
  -1.4999999999999986E-002     3.0135661385237529     
  -1.4499999999999985E-002     3.2776586475758629     
  -1.3999999999999985E-002     3.5467128278150910     
  -1.3499999999999984E-002     3.8192669583468151     
  -1.2999999999999984E-002     4.0967463725934170     
  -1.2499999999999983E-002     4.3790115134128822     
  -1.1999999999999983E-002     4.6644040921447285     
  -1.1499999999999982E-002     4.9546712437463665     
  -1.0999999999999982E-002     5.2486423423996538     
  -1.0499999999999982E-002     5.5468817904296239     
  -9.9999999999999811E-003     5.8490101311083951     
  -9.4999999999999807E-003     6.1544269258581643     
  -8.9999999999999802E-003     6.4647604700428296     
  -8.4999999999999798E-003     6.7782110946469665     
  -7.9999999999999793E-003     7.0941285329515562     
  -7.4999999999999789E-003     7.4149683411222167     
  -6.9999999999999785E-003     7.7374692287644251     
  -6.4999999999999780E-003     8.0632472969511095     
  -5.9999999999999776E-003     8.3909056285876513     
  -5.4999999999999771E-003     8.7211096253458393     
  -4.9999999999999767E-003     9.0540876938505672     
  -4.4999999999999762E-003     9.3892764222492264     
  -3.9999999999999758E-003     9.7252089277996809     
  -3.4999999999999754E-003     10.062735319945855     
  -2.9999999999999749E-003     10.401405839640496     
  -2.4999999999999745E-003     10.740288145401255     
  -1.9999999999999740E-003     11.080924830773952     
  -1.4999999999999736E-003     11.420930810945681     
  -9.9999999999997313E-004     11.761825501178976     
  -4.9999999999997269E-004     12.103348915696923     
   0.0000000000000000          12.446215372663723     
   5.0000000000000044E-004     12.787604341150274     
   1.0000000000000009E-003     13.129724892614661     
   1.5000000000000013E-003     13.470308696203514     
   2.0000000000000018E-003     13.811619695555251     
   2.5000000000000022E-003     14.150080701470031     
   3.0000000000000027E-003     14.485381277421304     
   3.5000000000000031E-003     14.819827117799463     
   4.0000000000000036E-003     15.147959363316986     
   4.5000000000000040E-003     15.473486245624535     
   5.0000000000000044E-003     15.796047917418953     
   5.5000000000000049E-003     16.116171163262308     
   6.0000000000000053E-003     16.431735891963278     
   6.5000000000000058E-003     16.745160816110740     
   7.0000000000000062E-003     17.054000301727577     
   7.5000000000000067E-003     17.359500379700094     
   8.0000000000000071E-003     17.661380384573555     
   8.5000000000000075E-003     17.958506139424607     
   9.0000000000000080E-003     18.249249663394878     
   9.5000000000000084E-003     18.534033822166400     
   1.0000000000000009E-002     18.810915815002126     
   1.0500000000000009E-002     19.080484316125357     
   1.1000000000000010E-002     19.342023731490414     
   1.1500000000000010E-002     19.596212060631366     
   1.2000000000000011E-002     19.842920473910034     
   1.2500000000000011E-002     20.079671818021410     
   1.3000000000000012E-002     20.309955977640932     
   1.3500000000000012E-002     20.531536415561540     
   1.4000000000000012E-002     20.745484682944756     
   1.4500000000000013E-002     20.951452868920782     
   1.5000000000000013E-002     21.147778187977501     
   1.5500000000000014E-002     21.334749104176360     
   1.6000000000000014E-002     21.511696400413868     
   1.6500000000000015E-002     21.677593455831072     
   1.7000000000000015E-002     21.831966055645815     
   1.7500000000000016E-002     21.973332173436738     
   1.8000000000000016E-002     22.104324334378695     
   1.8500000000000016E-002     22.221221589816352     
   1.9000000000000017E-002     22.325580158906050     
   1.9500000000000017E-002     22.416683386827948     
   2.0000000000000018E-002     22.495159650393312     
   2.0500000000000018E-002     22.559607983196351     
   2.1000000000000019E-002     22.612022965060596     
   2.1500000000000019E-002     22.651554313663787     
   2.2000000000000020E-002     22.678099276220223     
   2.2500000000000020E-002     22.692924687434555     
   2.3000000000000020E-002     22.691929099068417     
   2.3500000000000021E-002     22.679143284306114     
   2.4000000000000021E-002     22.649557936668074     
   2.4500000000000022E-002     22.605134181856734     
   2.5000000000000022E-002     22.544747321402049     
   2.5500000000000023E-002     22.467758245881157     
   2.6000000000000023E-002     22.374100496170406     
   2.6500000000000024E-002     22.263557421459325     
   2.7000000000000024E-002     22.136670052477839     
   2.7500000000000024E-002     21.993168761901529     
   2.8000000000000025E-002     21.834344893116040     
   2.8500000000000025E-002     21.660472572467690     
   2.9000000000000026E-002     21.470478925405494     
   2.9500000000000026E-002     21.264977733830442     
   3.0000000000000027E-002     21.043555122666103     
   3.0500000000000027E-002     20.804687338430099     
   3.1000000000000028E-002     20.549100498145911     
   3.1500000000000028E-002     20.275975744139682     
   3.2000000000000028E-002     19.985452897382917     