 -0.23999999999999999          0.0000000000000000     
 -0.23949999999999999          0.0000000000000000     
 -0.23899999999999999          0.0000000000000000     
 -0.23849999999999999          0.0000000000000000     
 -0.23799999999999999          0.0000000000000000     
 -0.23749999999999999          0.0000000000000000     
 -0.23699999999999999          0.0000000000000000     
 -0.23649999999999999          0.0000000000000000     
 -0.23599999999999999          0.0000000000000000     
 -0.23549999999999999          4.2337980349742324E-035
 -0.23499999999999999          7.7346692581091480E-034
 -0.23449999999999999          7.2333288153361120E-033
 -0.23399999999999999          4.6020680241825359E-032
 -0.23349999999999999          2.2316858991886597E-031
 -0.23299999999999998          8.7513814687080088E-031
 -0.23249999999999998          2.8695212650465334E-030
 -0.23199999999999998          8.0040136332800624E-030
 -0.23149999999999998          1.9040139148630474E-029
 -0.23099999999999998          3.7898052222600997E-029
 -0.23049999999999998          5.8637133920712212E-029
 -0.22999999999999998          4.9043730802182508E-029
 -0.22949999999999998         -8.8286584673310660E-029
 -0.22899999999999998         -5.8536603988733844E-028
 -0.22849999999999998         -1.9134793850757557E-027
 -0.22799999999999998         -4.9107045869474860E-027
 -0.22749999999999998         -1.0884862237238916E-026
 -0.22699999999999998         -2.1588776422854852E-026
 -0.22649999999999998         -3.8894044293335431E-026
 -0.22599999999999998         -6.3924369704404809E-026
 -0.22549999999999998         -9.5390083713311206E-026
 -0.22499999999999998         -1.2695277830975321E-025
 -0.22449999999999998         -1.4371242406401306E-025
 -0.22399999999999998         -1.1840951331382281E-025
 -0.22349999999999998         -8.6848385653983554E-027
 -0.22299999999999998          2.4234906483276134E-025
 -0.22249999999999998          6.9911106604646604E-025
 -0.22199999999999998          1.4165953928288215E-024
 -0.22150000000000000          2.4104733587077221E-024
 -0.22100000000000000          3.6133596269944771E-024
 -0.22050000000000000          4.8204887836599633E-024
 -0.22000000000000000          5.6343151643789571E-024
 -0.21950000000000000          5.4255040771974079E-024
 -0.21900000000000000          3.3359606339780344E-024
 -0.21850000000000000         -1.6443440721163326E-024
 -0.21800000000000000         -1.0494415415103236E-023
 -0.21750000000000000         -2.3849384045222611E-023
 -0.21700000000000000         -4.1555214023892608E-023
 -0.21650000000000000         -6.2124235168445803E-023
 -0.21600000000000000         -8.2173860826670621E-023
 -0.21550000000000000         -9.5987938615019573E-023
 -0.21500000000000000         -9.5395087556640636E-023
 -0.21450000000000000         -7.0194566218782633E-023
 -0.21400000000000000         -9.3606937099730908E-024
 -0.21350000000000000          9.6802680468819075E-023
 -0.21299999999999999          2.5351561064392687E-022
 -0.21249999999999999          4.5755336044141254E-022
 -0.21199999999999999          6.9290669198741224E-022
 -0.21149999999999999          9.2684406238475092E-022
 -0.21099999999999999          1.1074607464763910E-021
 -0.21049999999999999          1.1640273997695696E-021
 -0.20999999999999999          1.0114970921554777E-021
 -0.20949999999999999          5.6032651258329150E-022
 -0.20899999999999999         -2.6777667595383577E-022
 -0.20849999999999999         -1.5184871159714172E-021
 -0.20799999999999999         -3.1794221651252817E-021
 -0.20749999999999999         -5.1536736817099129E-021
 -0.20699999999999999         -7.2368739322557277E-021
 -0.20649999999999999         -9.1036501303452855E-021
 -0.20599999999999999         -1.0310051048488395E-020
 -0.20549999999999999         -1.0318339010485264E-020
 -0.20499999999999999         -8.5491305427921835E-021
 -0.20449999999999999         -4.4629928144091233E-021
 -0.20399999999999999          2.3306502402697376E-021
 -0.20349999999999999          1.1944932331727540E-020
 -0.20299999999999999          2.4081116252778156E-020
 -0.20249999999999999          3.7908220520187684E-020
 -0.20199999999999999          5.1981496645949834E-020
 -0.20149999999999998          6.4227078434184855E-020
 -0.20099999999999998          7.2019223202010945E-020
 -0.20049999999999998          7.2371091617424225E-020
 -0.19999999999999998          6.2249470535329562E-020
 -0.19949999999999998          3.9008525831248064E-020
 -0.19899999999999998          9.1796933933569109E-022
 -0.19849999999999998         -5.2260857510794012E-020
 -0.19799999999999998         -1.1871921041090091E-019
 -0.19749999999999998         -1.9415183964705167E-019
 -0.19699999999999998         -2.7151231669833384E-019
 -0.19649999999999998         -3.4107070988974220E-019
 -0.19600000000000001         -3.9085829736900266E-019
 -0.19550000000000001         -4.0755493803338552E-019
 -0.19500000000000001         -3.7783025442008076E-019
 -0.19450000000000001         -2.9009100005142798E-019
 -0.19400000000000001         -1.3651963312985629E-019
 -0.19350000000000001          8.4781915657713785E-020
 -0.19300000000000000          3.6779265033129705E-019
 -0.19250000000000000          6.9701495437380039E-019
 -0.19200000000000000          1.0466774341897660E-018
 -0.19150000000000000          1.3810024344853500E-018
 -0.19100000000000000          1.6557842859523763E-018
 -0.19050000000000000          1.8214225507251744E-018
 -0.19000000000000000          1.8274084432279144E-018
 -0.18950000000000000          1.6280796290937143E-018
 -0.18900000000000000          1.1892641398446662E-018
 -0.18850000000000000          4.9522972401304746E-019
 -0.18800000000000000         -4.4481714988221490E-019
 -0.18750000000000000         -1.5915578472906964E-018
 -0.18700000000000000         -2.8726336584547671E-018
 -0.18650000000000000         -4.1828203335188398E-018
 -0.18600000000000000         -5.3879956026386932E-018
 -0.18550000000000000         -6.3332814766423484E-018
 -0.18500000000000000         -6.8553614833388672E-018
 -0.18450000000000000         -6.7984704823493076E-018
 -0.18400000000000000         -6.0330376617524446E-018
 -0.18350000000000000         -4.4754420926543738E-018
 -0.18300000000000000         -2.1069063615598352E-018
 -0.18250000000000000          1.0107581500654165E-018
 -0.18200000000000000          4.7249247284840423E-018
 -0.18149999999999999          8.7896733013670629E-018
 -0.18099999999999999          1.2872846908804396E-017
 -0.18049999999999999          1.6573691846855432E-017
 -0.17999999999999999          1.9451186845770173E-017
 -0.17949999999999999          2.1061947380788558E-017
 -0.17899999999999999          2.1005398005391983E-017
 -0.17849999999999999          1.8972626465461294E-017
 -0.17799999999999999          1.4794313852690562E-017
 -0.17749999999999999          8.4824683480322191E-018
 -0.17699999999999999          2.6040752037238601E-019
 -0.17649999999999999         -9.4242076851595532E-018
 -0.17599999999999999         -1.9907477869627899E-017
 -0.17549999999999999         -3.0341113908620613E-017
 -0.17499999999999999         -3.9748480196508587E-017
 -0.17449999999999999         -4.7102684942366439E-017
 -0.17399999999999999         -5.1421818436979424E-017
 -0.17349999999999999         -5.1873889185351905E-017
 -0.17299999999999999         -4.7881660777542327E-017
 -0.17249999999999999         -3.9216235794445017E-017
 -0.17199999999999999         -2.6067658981794032E-017
 -0.17149999999999999         -9.0816498596248055E-018
 -0.17099999999999999          1.0646376139193390E-017
 -0.17049999999999998          3.1625470628286799E-017
 -0.16999999999999998          5.2072336431748277E-017
 -0.16949999999999998          7.0059286207485257E-017
 -0.16899999999999998          8.3696960027087821E-017
 -0.16849999999999998          9.1336595023835672E-017
 -0.16799999999999998          9.1772135394846893E-017
 -0.16749999999999998          8.4419856325455064E-017
 -0.16699999999999998          6.9452102550646833E-017
 -0.16649999999999998          4.7863959112433692E-017
 -0.16599999999999998          2.1455862369014886E-017
 -0.16549999999999998         -7.2779188410457621E-018
 -0.16499999999999998         -3.5355608513370175E-017
 -0.16449999999999998         -5.9598925617262180E-017
 -0.16399999999999998         -7.6987797340343720E-017
 -0.16349999999999998         -8.5047421712586795E-017
 -0.16299999999999998         -8.2227397568271013E-017
 -0.16249999999999998         -6.8227650250941738E-017
 -0.16199999999999998         -4.4225175054200672E-017
 -0.16149999999999998         -1.2958537030000602E-017
 -0.16099999999999998          2.1361959171516641E-017
 -0.16049999999999998          5.3337684540937994E-017
 -0.15999999999999998          7.6857089568670541E-017
 -0.15949999999999998          8.5742571064486558E-017
 -0.15899999999999997          7.4523474094315541E-017
 -0.15849999999999997          3.9267970978676533E-017
 -0.15799999999999997         -2.1608075182253219E-017
 -0.15749999999999997         -1.0665137422666705E-016
 -0.15699999999999997         -2.1089818073475675E-016
 -0.15649999999999997         -3.2570854688629164E-016
 -0.15599999999999997         -4.3898006593090229E-016
 -0.15549999999999997         -5.3578656150008981E-016
 -0.15499999999999997         -5.9944712259599967E-016
 -0.15449999999999997         -6.1298975005449744E-016
 -0.15399999999999997         -5.6092570528120940E-016
 -0.15349999999999997         -4.3120282116745011E-016
 -0.15299999999999997         -2.1717224641929796E-016
 -0.15249999999999997          8.0631620582868413E-017
 -0.15200000000000000          4.5310788727683437E-016
 -0.15150000000000000          8.8180042042597796E-016
 -0.15100000000000000          1.3388835921429544E-015
 -0.15049999999999999          1.7880539408853587E-015
 -0.14999999999999999          2.1863813487270605E-015
 -0.14949999999999999          2.4870937151118613E-015
 -0.14899999999999999          2.6431862171813047E-015
 -0.14849999999999999          2.6116352986872661E-015
 -0.14799999999999999          2.3579252140620800E-015
 -0.14749999999999999          1.8605133743582278E-015
 -0.14699999999999999          1.1148177548475375E-015
 -0.14649999999999999          1.3629976407694390E-016
 -0.14599999999999999         -1.0377487680757105E-015
 -0.14549999999999999         -2.3480782442920119E-015
 -0.14499999999999999         -3.7152233024783429E-015
 -0.14449999999999999         -5.0431913927882679E-015
 -0.14399999999999999         -6.2250738282676119E-015
 -0.14349999999999999         -7.1502929987511676E-015
 -0.14299999999999999         -7.7130405130832434E-015
 -0.14249999999999999         -7.8213751800041212E-015
 -0.14199999999999999         -7.4062223096981600E-015
 -0.14149999999999999         -6.4295221707463823E-015
 -0.14099999999999999         -4.8907246152495466E-015
 -0.14049999999999999         -2.8309029060947241E-015
 -0.13999999999999999         -3.3388111780809516E-016
 -0.13949999999999999          2.4760403586666663E-015
 -0.13899999999999998          5.4398243112189874E-015
 -0.13849999999999998          8.3728944255873940E-015
 -0.13799999999999998          1.1077219904417988E-014
 -0.13749999999999998          1.3355529315394084E-014
 -0.13699999999999998          1.5026715155931451E-014
 -0.13649999999999998          1.5941071975899418E-014
 -0.13599999999999998          1.5994150448506161E-014
 -0.13550000000000001          1.5137947522564886E-014
 -0.13500000000000001          1.3388003711558866E-014
 -0.13450000000000001          1.0825688388533140E-014
 -0.13400000000000001          7.5950708463873480E-015
 -0.13350000000000001          3.8940717681922466E-015
 -0.13300000000000001         -3.9851606457836798E-017
 -0.13250000000000001         -3.9482196198948986E-015
 -0.13200000000000001         -7.5733868029376379E-015
 -0.13150000000000001         -1.0681647894753704E-014
 -0.13100000000000001         -1.3085798449604530E-014
 -0.13050000000000000         -1.4665011758663131E-014
 -0.13000000000000000         -1.5379814392521562E-014
 -0.12950000000000000         -1.5280103368036681E-014
 -0.12900000000000000         -1.4505534089419986E-014
 -0.12850000000000000         -1.3276812849539847E-014
 -0.12800000000000000         -1.1877877797810115E-014
 -0.12750000000000000         -1.0630253323646102E-014
 -0.12700000000000000         -9.8607128796372560E-015
 -0.12650000000000000         -9.8649395740440550E-015
 -0.12600000000000000         -1.0869994987938118E-014
 -0.12550000000000000         -1.2998973337346228E-014
 -0.12499999999999999         -1.6240923333293335E-014
 -0.12449999999999999         -2.0431220734348776E-014
 -0.12399999999999999         -2.5242644007494007E-014
 -0.12349999999999998         -3.0190988462497001E-014
 -0.12299999999999998         -3.4656864644809840E-014
 -0.12249999999999998         -3.7921366892977593E-014
 -0.12199999999999998         -3.9215758597258357E-014
 -0.12149999999999998         -3.7782788914675000E-014
 -0.12099999999999998         -3.2944211459306691E-014
 -0.12049999999999998         -2.4170779716918209E-014
 -0.12000000000000000         -1.1147590554642928E-014
 -0.11950000000000000          6.1690163407853750E-015
 -0.11899999999999999          2.7509380407311768E-014
 -0.11849999999999999          5.2269068251138001E-014
 -0.11799999999999999          7.9509918885379421E-014
 -0.11749999999999999          1.0798736308371276E-013
 -0.11699999999999999          1.3620077017172799E-013
 -0.11649999999999999          1.6246883395923395E-013
 -0.11599999999999999          1.8502536200219744E-013
 -0.11549999999999999          2.0212599497783368E-013
 -0.11499999999999999          2.1216177686217419E-013
 -0.11449999999999999          2.1377269800258031E-013
 -0.11399999999999999          2.0594700803674287E-013
 -0.11349999999999999          1.8810303249912341E-013
 -0.11299999999999999          1.6014740803014377E-013
 -0.11249999999999999          1.2249729496819489E-013
 -0.11199999999999999          7.6070273940642003E-014
 -0.11149999999999999          2.2243085194897927E-014
 -0.11099999999999999         -3.7228934399256147E-014
 -0.11049999999999999         -1.0031599574460148E-013
 -0.10999999999999999         -1.6483732781513716E-013
 -0.10949999999999999         -2.2859099053744447E-013
 -0.10899999999999999         -2.8948544950058164E-013
 -0.10849999999999999         -3.4565847905308755E-013
 -0.10799999999999998         -3.9556796423492746E-013
 -0.10749999999999998         -4.3805169452730552E-013
 -0.10699999999999998         -4.7234595791992295E-013
 -0.10649999999999998         -4.9806437186356023E-013
 -0.10599999999999998         -5.1513589401086524E-013
 -0.10549999999999998         -5.2369626647383316E-013
 -0.10499999999999998         -5.2396373914978533E-013
 -0.10449999999999998         -5.1609584661438390E-013
 -0.10399999999999998         -5.0003973401172019E-013
 -0.10349999999999998         -4.7541414164783968E-013
 -0.10299999999999998         -4.4140334291321859E-013
 -0.10249999999999998         -3.9671182463195398E-013
 -0.10199999999999998         -3.3959269315868290E-013
 -0.10149999999999998         -2.6790917574681661E-013
 -0.10099999999999998         -1.7930786250317660E-013
 -0.10049999999999998         -7.1424779339666206E-014
  -9.9999999999999978E-002     5.7846028043550407E-014
  -9.9499999999999977E-002     2.1001745535795951E-013
  -9.8999999999999977E-002     3.8568500064679878E-013
  -9.8499999999999976E-002     5.8420591498090091E-013
  -9.7999999999999976E-002     8.0340893443206496E-013
  -9.7499999999999976E-002     1.0393723642171393E-012
  -9.6999999999999975E-002     1.2862926869472435E-012
  -9.6499999999999975E-002     1.5364819876476088E-012
  -9.5999999999999974E-002     1.7804785423791714E-012
  -9.5500000000000002E-002     2.0073049125657327E-012
  -9.5000000000000001E-002     2.2048671482338689E-012
  -9.4500000000000001E-002     2.3604605683263946E-012
  -9.4000000000000000E-002     2.4613995737443606E-012
  -9.3500000000000000E-002     2.4957078504500574E-012
  -9.2999999999999999E-002     2.4528285218899937E-012
  -9.2499999999999999E-002     2.3243330003752671E-012
  -9.1999999999999998E-002     2.1045760620341802E-012
  -9.1499999999999998E-002     1.7912326353078378E-012
  -9.0999999999999998E-002     1.3856675138909647E-012
  -9.0499999999999997E-002     8.9315008297216614E-013
  -8.9999999999999997E-002     3.2286367047766606E-013
  -8.9499999999999996E-002    -3.1230985679531198E-013
  -8.8999999999999996E-002    -9.9625093331195957E-013
  -8.8499999999999995E-002    -1.7102082553940856E-012
  -8.7999999999999995E-002    -2.4335659355723127E-012
  -8.7499999999999994E-002    -3.1448034280845416E-012
  -8.6999999999999994E-002    -3.8224397605479687E-012
  -8.6499999999999994E-002    -4.4459852466260941E-012
  -8.5999999999999993E-002    -4.9969134732763543E-012
  -8.5499999999999993E-002    -5.4594584061873341E-012
  -8.4999999999999992E-002    -5.8212328186979523E-012
  -8.4499999999999992E-002    -6.0736519980064685E-012
  -8.3999999999999991E-002    -6.2121436467110769E-012
  -8.3499999999999991E-002    -6.2360524730187272E-012
  -8.2999999999999990E-002    -6.1484020999480471E-012
  -8.2499999999999990E-002    -5.9552779374527631E-012
  -8.1999999999999990E-002    -5.6651623496495329E-012
  -8.1499999999999989E-002    -5.2881275747207468E-012
  -8.0999999999999989E-002    -4.8349046120887973E-012
  -8.0499999999999988E-002    -4.3159724925911913E-012
  -7.9999999999999988E-002    -3.7408214546841290E-012
  -7.9499999999999987E-002    -3.1171807756552594E-012
  -7.8999999999999987E-002    -2.4506210862668132E-012
  -7.8499999999999986E-002    -1.7442377837212364E-012
  -7.7999999999999986E-002    -9.9863682861273118E-013
  -7.7499999999999986E-002    -2.1229597398607358E-013
  -7.6999999999999985E-002     6.1802136758909443E-013
  -7.6499999999999985E-002     1.4966293178722556E-012
  -7.5999999999999984E-002     2.4279116044023663E-012
  -7.5499999999999984E-002     3.4154877277120521E-012
  -7.4999999999999983E-002     4.4612243586816813E-012
  -7.4499999999999983E-002     5.5643267771188221E-012
  -7.3999999999999982E-002     6.7205472957521106E-012
  -7.3499999999999982E-002     7.9215835280255220E-012
  -7.2999999999999982E-002     9.1548062533530761E-012
  -7.2499999999999981E-002     1.0403084643728633E-011
  -7.1999999999999981E-002     1.1644950628775241E-011
  -7.1499999999999980E-002     1.2855051224891501E-011
  -7.0999999999999980E-002     1.4004830281577618E-011
  -7.0499999999999979E-002     1.5063323852149146E-011
  -6.9999999999999979E-002     1.5998201027822567E-011
  -6.9499999999999978E-002     1.6776522879236033E-011
  -6.8999999999999978E-002     1.7365935078839101E-011
  -6.8499999999999978E-002     1.7735642815486230E-011
  -6.7999999999999977E-002     1.7856903455903961E-011
  -6.7499999999999977E-002     1.7703801966084676E-011
  -6.6999999999999976E-002     1.7253233564051840E-011
  -6.6499999999999976E-002     1.6485500464735736E-011
  -6.5999999999999975E-002     1.5384230347970096E-011
  -6.5499999999999975E-002     1.3936322582064342E-011
  -6.4999999999999974E-002     1.2130527485276765E-011
  -6.4499999999999974E-002     9.9586424176512089E-012
  -6.4000000000000001E-002     7.4158986243522129E-012
  -6.3500000000000001E-002     4.4982780521285459E-012
  -6.3000000000000000E-002     1.2046993177333709E-012
  -6.2500000000000000E-002    -2.4614557354168953E-012
  -6.2000000000000000E-002    -6.4938783517209941E-012
  -6.1499999999999999E-002    -1.0881893476588633E-011
  -6.0999999999999999E-002    -1.5609053979903642E-011
  -6.0499999999999998E-002    -2.0650628776430757E-011
  -5.9999999999999998E-002    -2.5972272943430852E-011
  -5.9499999999999997E-002    -3.1530687782943545E-011
  -5.8999999999999997E-002    -3.7269454883359643E-011
  -5.8499999999999996E-002    -4.3119157550064457E-011
  -5.7999999999999996E-002    -4.8995849044608519E-011
  -5.7499999999999996E-002    -5.4799480925238342E-011
  -5.6999999999999995E-002    -6.0417684744074052E-011
  -5.6499999999999995E-002    -6.5722836894988035E-011
  -5.5999999999999994E-002    -7.0573560884135134E-011
  -5.5499999999999994E-002    -7.4818137796306416E-011
  -5.4999999999999993E-002    -7.8292268501645168E-011
  -5.4499999999999993E-002    -8.0826401127609415E-011
  -5.3999999999999992E-002    -8.2244884513915650E-011
  -5.3499999999999992E-002    -8.2369971954321386E-011
  -5.2999999999999992E-002    -8.1025949838497979E-011
  -5.2499999999999991E-002    -7.8038298045868260E-011
  -5.1999999999999991E-002    -7.3237596542874428E-011
  -5.1499999999999990E-002    -6.6456617986432320E-011
  -5.0999999999999990E-002    -5.7533262876052760E-011
  -5.0499999999999989E-002    -4.6318556629065810E-011
  -4.9999999999999989E-002    -3.2674678934752066E-011
  -4.9499999999999988E-002    -1.6454098500373604E-011
  -4.8999999999999988E-002     2.4905188588525418E-012
  -4.8499999999999988E-002     2.4294987896467113E-011
  -4.7999999999999987E-002     4.9101913507376693E-011
  -4.7499999999999987E-002     7.7049672198015173E-011
  -4.6999999999999986E-002     1.0829700330949876E-010
  -4.6499999999999986E-002     1.4299476880363926E-010
  -4.5999999999999985E-002     1.8131350587591299E-010
  -4.5499999999999985E-002     2.2344563699316922E-010
  -4.4999999999999984E-002     2.6957430732110765E-010
  -4.4499999999999984E-002     3.1992644644596169E-010
  -4.3999999999999984E-002     3.7472738800836680E-010
  -4.3499999999999983E-002     4.3420489426182485E-010
  -4.2999999999999983E-002     4.9863047024700791E-010
  -4.2499999999999982E-002     5.6825577576802289E-010
  -4.1999999999999982E-002     6.4338973038147174E-010
  -4.1499999999999981E-002     7.2432931874644169E-010
  -4.0999999999999981E-002     8.1132361939850739E-010
  -4.0499999999999980E-002     9.0469776115043032E-010
  -3.9999999999999980E-002     1.0048071263923930E-009
  -3.9499999999999980E-002     1.1119913878587795E-009
  -3.8999999999999979E-002     1.2265936044641990E-009
  -3.8499999999999979E-002     1.3490034644902948E-009
  -3.7999999999999978E-002     1.4796448510878690E-009
  -3.7499999999999978E-002     1.6189726226301104E-009
  -3.6999999999999977E-002     1.7674659513744473E-009
  -3.6499999999999977E-002     1.9256483074769903E-009
  -3.5999999999999976E-002     2.0940855716133910E-009
  -3.5499999999999976E-002     2.2734372162602767E-009
  -3.4999999999999976E-002     2.4643393992107576E-009
  -3.4499999999999975E-002     2.6674300546147833E-009
  -3.3999999999999975E-002     2.8834921117493195E-009
  -3.3499999999999974E-002     3.1133713385145256E-009
  -3.2999999999999974E-002     3.3579612424006200E-009
  -3.2499999999999973E-002     3.6182332685541496E-009
  -3.1999999999999973E-002     3.8951881720095116E-009
  -3.1500000000000000E-002     4.1898613467594714E-009
  -3.1000000000000000E-002     4.5033750062373201E-009
  -3.0499999999999999E-002     4.8368842264778777E-009
  -2.9999999999999999E-002     5.1915818310988016E-009
  -2.9499999999999998E-002     5.5688151867627766E-009
  -2.8999999999999998E-002     5.9700031584952740E-009
  -2.8499999999999998E-002     6.3966902885681520E-009
  -2.7999999999999997E-002     6.8504704131555627E-009
  -2.7499999999999997E-002     7.3330208572031097E-009
  -2.6999999999999996E-002     7.8461814823072018E-009
  -2.6499999999999996E-002     8.3918774151925390E-009
  -2.5999999999999995E-002     8.9721918783425281E-009
  -2.5499999999999995E-002     9.5897787488752328E-009
  -2.4999999999999994E-002     1.0247212856029364E-008
  -2.4499999999999994E-002     1.0946795470090365E-008
  -2.3999999999999994E-002     1.1691657419987678E-008
  -2.3499999999999993E-002     1.2484908218368673E-008
  -2.2999999999999993E-002     1.3329550796470357E-008
  -2.2499999999999992E-002     1.4229239120311377E-008
  -2.1999999999999992E-002     1.5187881174938411E-008
  -2.1499999999999991E-002     1.6209572351044699E-008
  -2.0999999999999991E-002     1.7297820065209635E-008
  -2.0499999999999990E-002     1.8456990602544465E-008
  -1.9999999999999990E-002     1.9692350861078012E-008
  -1.9499999999999990E-002     2.1008487394169606E-008
  -1.8999999999999989E-002     2.2410361566471693E-008
  -1.8499999999999989E-002     2.3904082269154969E-008
  -1.7999999999999988E-002     2.5495905831007803E-008
  -1.7499999999999988E-002     2.7190811380251034E-008
  -1.6999999999999987E-002     2.8996002043868430E-008
  -1.6499999999999987E-002     3.0918776872113085E-008
  -1.5999999999999986E-002     3.2965388641059690E-008
  -1.5499999999999986E-002     3.5143678189797356E-008
  -1.4999999999999986E-002     3.7463024682438117E-008
  -1.4499999999999985E-002     3.9931883577537519E-008
  -1.3999999999999985E-002     4.2559470614378370E-008
  -1.3499999999999984E-002     4.5354635602734561E-008
  -1.2999999999999984E-002     4.8327827073535445E-008
  -1.2499999999999983E-002     5.1489429608864157E-008
  -1.1999999999999983E-002     5.4851202690997525E-008
  -1.1499999999999982E-002     5.8425218441016114E-008
  -1.0999999999999982E-002     6.2223712404829712E-008
  -1.0499999999999982E-002     6.6260994913136528E-008
  -9.9999999999999811E-003     7.0550100872424082E-008
  -9.4999999999999807E-003     7.5106662222879095E-008
  -8.9999999999999802E-003     7.9946602227209951E-008
  -8.4999999999999798E-003     8.5086810486245668E-008
  -7.9999999999999793E-003     9.0544425290772779E-008
  -7.4999999999999789E-003     9.6337529953416379E-008
  -6.9999999999999785E-003     1.0248707837945403E-007
  -6.4999999999999780E-003     1.0901482028202736E-007
  -5.9999999999999776E-003     1.1594556070804174E-007
  -5.4999999999999771E-003     1.2329924459208996E-007
  -4.9999999999999767E-003     1.3109719532167219E-007
  -4.4999999999999762E-003     1.3937064125002507E-007
  -3.9999999999999758E-003     1.4814855830991291E-007
  -3.4999999999999754E-003     1.5745450809845352E-007
  -2.9999999999999749E-003     1.6731739549413760E-007
  -2.4999999999999745E-003     1.7777048810785345E-007
  -1.9999999999999740E-003     1.8885160102399823E-007
  -1.4999999999999736E-003     2.0060073779859522E-007
  -9.9999999999997313E-004     2.1305424979800591E-007
  -4.9999999999997269E-004     2.2625010842602933E-007
   0.0000000000000000          2.4022804723244917E-007
   5.0000000000000044E-004     2.5503700840090460E-007
   1.0000000000000009E-003     2.7072297825725400E-007
   1.5000000000000013E-003     2.8733632007060805E-007
   2.0000000000000018E-003     3.0493453095914447E-007
   2.5000000000000022E-003     3.2356658152821183E-007
   3.0000000000000027E-003     3.4329417530898354E-007
   3.5000000000000031E-003     3.6418251170289295E-007
   4.0000000000000036E-003     3.8629161736025708E-007
   4.5000000000000040E-003     4.0969467818285921E-007
   5.0000000000000044E-003     4.3445635355965351E-007
   5.5000000000000049E-003     4.6064533876233327E-007
   6.0000000000000053E-003     4.8835266852620407E-007
   6.5000000000000058E-003     5.1765016451099655E-007
   7.0000000000000062E-003     5.4861880016687792E-007
   7.5000000000000067E-003     5.8135140079684788E-007
   8.0000000000000071E-003     6.1595750366905122E-007
   8.5000000000000075E-003     6.5253090042460826E-007
   9.0000000000000080E-003     6.9117703560550581E-007
   9.5000000000000084E-003     7.3201078976126155E-007
   1.0000000000000009E-002     7.7514437180070672E-007
   1.0500000000000009E-002     8.2072102713937056E-007
   1.1000000000000010E-002     8.6887956740611116E-007
   1.1500000000000010E-002     9.1974476390532800E-007
   1.2000000000000011E-002     9.7345161975681549E-007
   1.2500000000000011E-002     1.0301592965333839E-006
   1.3000000000000012E-002     1.0900290590143413E-006
   1.3500000000000012E-002     1.1532354164955905E-006
   1.4000000000000012E-002     1.2199584489280824E-006
   1.4500000000000013E-002     1.2903660717711318E-006
   1.5000000000000013E-002     1.3646427987623611E-006
   1.5500000000000014E-002     1.4430166856982396E-006
   1.6000000000000014E-002     1.5256889582815347E-006
   1.6500000000000015E-002     1.6128699371620314E-006
   1.7000000000000015E-002     1.7048206473191385E-006
   1.7500000000000016E-002     1.8018070022662869E-006
   1.8000000000000016E-002     1.9040426195715554E-006
   1.8500000000000016E-002     2.0117849999223836E-006
   1.9000000000000017E-002     2.1253320028336020E-006
   1.9500000000000017E-002     2.2449994503404014E-006
   2.0000000000000018E-002     2.3710965706413845E-006
   2.0500000000000018E-002     2.5039100819412852E-006
   2.1000000000000019E-002     2.6438535769557348E-006
   2.1500000000000019E-002     2.7912487894354854E-006
   2.2000000000000020E-002     2.9463740247592796E-006
   2.2500000000000020E-002     3.1096517432160908E-006
   2.3000000000000020E-002     3.2814791666169185E-006
   2.3500000000000021E-002     3.4623387819010532E-006
   2.4000000000000021E-002     3.6527271731756628E-006
   2.4500000000000022E-002     3.8530574784090277E-006
   2.5000000000000022E-002     4.0638915379531682E-006
   2.5500000000000023E-002     4.2857868720602710E-006
   2.6000000000000023E-002     4.5191177378001157E-006
   2.6500000000000024E-002     4.7645066842960659E-006
   2.7000000000000024E-002     5.0225753511767834E-006
   2.7500000000000024E-002     5.2939599299861584E-006
   2.8000000000000025E-002     5.5794016589061357E-006
   2.8500000000000025E-002     5.8795385484700091E-006
   2.9000000000000026E-002     6.1951195675646886E-006
   2.9500000000000026E-002     6.5268268372165039E-006
   3.0000000000000027E-002     6.8752551669604145E-006
   3.0500000000000027E-002     7.2411412475048564E-006
   3.1000000000000028E-002     7.6256342254055198E-006
   3.1500000000000028E-002     8.0295067164115608E-006
   3.2000000000000028E-002     8.4534158304450102E-006