 -0.23999999999999999          0.0000000000000000     
 -0.23949999999999999          0.0000000000000000     
 -0.23899999999999999          0.0000000000000000     
 -0.23849999999999999          0.0000000000000000     
 -0.23799999999999999          0.0000000000000000     
 -0.23749999999999999          0.0000000000000000     
 -0.23699999999999999          0.0000000000000000     
 -0.23649999999999999          0.0000000000000000     
 -0.23599999999999999          0.0000000000000000     
 -0.23549999999999999          1.6935190771548037E-031
 -0.23499999999999999          2.7551637203047535E-030
 -0.23449999999999999          2.3084282077493245E-029
 -0.23399999999999999          1.3206512092482674E-028
 -0.23349999999999999          5.7652640662858991E-028
 -0.23299999999999998          2.0313516902760988E-027
 -0.23249999999999998          5.9461808215472834E-027
 -0.23199999999999998          1.4591788193978471E-026
 -0.23149999999999998          2.9552710906305888E-026
 -0.23099999999999998          4.5878929978441283E-026
 -0.23049999999999998          3.7077414725152060E-026
 -0.22999999999999998         -7.5451020362219573E-026
 -0.22949999999999998         -4.7387032348807223E-025
 -0.22899999999999998         -1.5144475730570857E-024
 -0.22849999999999998         -3.7980047492054858E-024
 -0.22799999999999998         -8.1908934513426628E-024
 -0.22749999999999998         -1.5705733106910918E-023
 -0.22699999999999998         -2.7109914982734770E-023
 -0.22649999999999998         -4.2111165324568926E-023
 -0.22599999999999998         -5.8010142531988215E-023
 -0.22549999999999998         -6.7852766357318021E-023
 -0.22499999999999998         -5.8397997040092799E-023
 -0.22449999999999998         -8.6405252346569142E-024
 -0.22399999999999998          1.0985208698274471E-022
 -0.22349999999999998          3.2904663155991240E-022
 -0.22299999999999998          6.7508898733288561E-022
 -0.22249999999999998          1.1519589638793916E-021
 -0.22199999999999998          1.7179781996773455E-021
 -0.22150000000000000          2.2575330075059836E-021
 -0.22100000000000000          2.5540128355692800E-021
 -0.22050000000000000          2.2745005094312992E-021
 -0.22000000000000000          9.8080719701166154E-022
 -0.21950000000000000         -1.8160510030015556E-021
 -0.21900000000000000         -6.5421197658936113E-021
 -0.21850000000000000         -1.3379094685038998E-020
 -0.21800000000000000         -2.2021187727102498E-020
 -0.21750000000000000         -3.1398683915610419E-020
 -0.21700000000000000         -3.9424636453453451E-020
 -0.21650000000000000         -4.2851455091978845E-020
 -0.21600000000000000         -3.7347030173358739E-020
 -0.21550000000000000         -1.7909298751495539E-020
 -0.21500000000000000          2.0280772253309651E-020
 -0.21450000000000000          8.0521315117606278E-020
 -0.21400000000000000          1.6281417968866265E-019
 -0.21350000000000000          2.6183924076574459E-019
 -0.21299999999999999          3.6501247044311218E-019
 -0.21249999999999999          4.5113851582213342E-019
 -0.21199999999999999          4.9027470534870168E-019
 -0.21149999999999999          4.4547475846919456E-019
 -0.21099999999999999          2.7699212976255622E-019
 -0.21049999999999999         -5.0725891406056890E-020
 -0.20999999999999999         -5.5939557169485778E-019
 -0.20949999999999999         -1.2452871181789279E-018
 -0.20899999999999999         -2.0671257983360881E-018
 -0.20849999999999999         -2.9357154859438266E-018
 -0.20799999999999999         -3.7080244521776898E-018
 -0.20749999999999999         -4.1889811747211348E-018
 -0.20699999999999999         -4.1438200084078834E-018
 -0.20649999999999999         -3.3232831037397285E-018
 -0.20599999999999999         -1.5023179838932959E-018
 -0.20549999999999999          1.4691645849421705E-018
 -0.20499999999999999          5.6076707850950133E-018
 -0.20449999999999999          1.0736878797193429E-017
 -0.20399999999999999          1.6437693427984363E-017
 -0.20349999999999999          2.2019428792153389E-017
 -0.20299999999999999          2.6525296655688995E-017
 -0.20249999999999999          2.8783119224876986E-017
 -0.20199999999999999          2.7509980728678244E-017
 -0.20149999999999998          2.1472354696067968E-017
 -0.20099999999999998          9.6962177577914908E-018
 -0.20049999999999998         -8.2887558834621008E-018
 -0.19999999999999998         -3.2197714176050984E-017
 -0.19949999999999998         -6.0766064226684701E-017
 -0.19899999999999998         -9.1596151065165011E-017
 -0.19849999999999998         -1.2111916018691353E-016
 -0.19799999999999998         -1.4471425554941713E-016
 -0.19749999999999998         -1.5701624443798337E-016
 -0.19699999999999998         -1.5242559056166107E-016
 -0.19649999999999998         -1.2580791106643971E-016
 -0.19600000000000001         -7.3342405763377627E-017
 -0.19550000000000001          6.5558472417492351E-018
 -0.19500000000000001          1.1234293270640352E-016
 -0.19450000000000001          2.3861410462054232E-016
 -0.19400000000000001          3.7567136761523779E-016
 -0.19350000000000001          5.0953478700319250E-016
 -0.19300000000000000          6.2250817692014924E-016
 -0.19250000000000000          6.9438093419792635E-016
 -0.19200000000000000          7.0426893212637703E-016
 -0.19150000000000000          6.3303097310300782E-016
 -0.19100000000000000          4.6609629049003181E-016
 -0.19050000000000000          1.9645730130547539E-016
 -0.19000000000000000         -1.7251391658297267E-016
 -0.18950000000000000         -6.2480151862484025E-016
 -0.18900000000000000         -1.1304602299218379E-015
 -0.18850000000000000         -1.6456774433308043E-015
 -0.18800000000000000         -2.1145097561195859E-015
 -0.18750000000000000         -2.4724529623768076E-015
 -0.18700000000000000         -2.6518496701658217E-015
 -0.18650000000000000         -2.5888981815258821E-015
 -0.18600000000000000         -2.2318015846994410E-015
 -0.18550000000000000         -1.5493412098660205E-015
 -0.18500000000000000         -5.3897754637063358E-016
 -0.18450000000000000          7.6654221207336196E-016
 -0.18400000000000000          2.2951886600325062E-015
 -0.18350000000000000          3.9351926766826011E-015
 -0.18300000000000000          5.5389504594537901E-015
 -0.18250000000000000          6.9317072528662493E-015
 -0.18200000000000000          7.9249579920909023E-015
 -0.18149999999999999          8.3340367891321029E-015
 -0.18099999999999999          7.9986549406997100E-015
 -0.18049999999999999          6.8047251556115681E-015
 -0.17999999999999999          4.7052502343057460E-015
 -0.17949999999999999          1.7377871941470259E-015
 -0.17899999999999999         -1.9639824722718401E-015
 -0.17849999999999999         -6.1670978111598440E-015
 -0.17799999999999999         -1.0546147187148486E-014
 -0.17749999999999999         -1.4701230887487725E-014
 -0.17699999999999999         -1.8187010328730296E-014
 -0.17649999999999999         -2.0551448590882052E-014
 -0.17599999999999999         -2.1381627276551886E-014
 -0.17549999999999999         -2.0352912538375116E-014
 -0.17499999999999999         -1.7276551554385594E-014
 -0.17449999999999999         -1.2140265734979921E-014
 -0.17399999999999999         -5.1362781961091473E-015
 -0.17349999999999999          3.3280021906410395E-015
 -0.17299999999999999          1.2640936745706571E-014
 -0.17249999999999999          2.2020788174154614E-014
 -0.17199999999999999          3.0573522094004199E-014
 -0.17149999999999999          3.7370500709796653E-014
 -0.17099999999999999          4.1541606038333206E-014
 -0.17049999999999998          4.2374764585911481E-014
 -0.16999999999999998          3.9412690369363193E-014
 -0.16949999999999998          3.2535101322046442E-014
 -0.16899999999999998          2.2015616190978679E-014
 -0.16849999999999998          8.5429117257932244E-015
 -0.16799999999999998         -6.8007267365840542E-015
 -0.16749999999999998         -2.2608396952521551E-014
 -0.16699999999999998         -3.7262656474952235E-014
 -0.16649999999999998         -4.9089902878340225E-014
 -0.16599999999999998         -5.6542437561462461E-014
 -0.16549999999999998         -5.8392642121336130E-014
 -0.16499999999999998         -5.3918112650434141E-014
 -0.16449999999999998         -4.3055175988045494E-014
 -0.16399999999999998         -2.6500340550433821E-014
 -0.16349999999999998         -5.7381573620549509E-015
 -0.16299999999999998          1.7018265797779340E-014
 -0.16249999999999998          3.8980649356154876E-014
 -0.16199999999999998          5.7029251113172030E-014
 -0.16149999999999998          6.8037155770417357E-014
 -0.16099999999999998          6.9244875675403272E-014
 -0.16049999999999998          5.8657932840416177E-014
 -0.15999999999999998          3.5419583932494447E-014
 -0.15949999999999998          1.2238498475213608E-016
 -0.15899999999999997         -4.4998696473652275E-014
 -0.15849999999999997         -9.6023219215389533E-014
 -0.15799999999999997         -1.4748102641470168E-013
 -0.15749999999999997         -1.9269213503460281E-013
 -0.15699999999999997         -2.2429519179467672E-013
 -0.15649999999999997         -2.3494620420179413E-013
 -0.15599999999999997         -2.1813990501093339E-013
 -0.15549999999999997         -1.6908613994625482E-013
 -0.15499999999999997         -8.5556202693206490E-014
 -0.15449999999999997          3.1385528534823640E-014
 -0.15399999999999997          1.7686977642032697E-013
 -0.15349999999999997          3.4202030313804088E-013
 -0.15299999999999997          5.1410140250798819E-013
 -0.15249999999999997          6.7711445174770124E-013
 -0.15200000000000000          8.1279162003275451E-013
 -0.15150000000000000          9.0197890389304147E-013
 -0.15100000000000000          9.2635372029442609E-013
 -0.15049999999999999          8.7032816934243251E-013
 -0.14999999999999999          7.2298162465470051E-013
 -0.14949999999999999          4.7986766470164977E-013
 -0.14899999999999999          1.4450028359199590E-013
 -0.14849999999999999         -2.7070479104857048E-013
 -0.14799999999999999         -7.4413430061967545E-013
 -0.14749999999999999         -1.2455118316920255E-012
 -0.14699999999999999         -1.7372733026460585E-012
 -0.14649999999999999         -2.1767975876690882E-012
 -0.14599999999999999         -2.5193970173975622E-012
 -0.14549999999999999         -2.7219324884308893E-012
 -0.14499999999999999         -2.7466549000487728E-012
 -0.14449999999999999         -2.5652169190898411E-012
 -0.14399999999999999         -2.1623208865811927E-012
 -0.14349999999999999         -1.5385565000844426E-012
 -0.14299999999999999         -7.1243136173446131E-013
 -0.14249999999999999          2.7909385956828570E-013
 -0.14199999999999999          1.3815146943096934E-012
 -0.14149999999999999          2.5252890056837174E-012
 -0.14099999999999999          3.6299036693110409E-012
 -0.14049999999999999          4.6093693098492317E-012
 -0.13999999999999999          5.3787308808284084E-012
 -0.13949999999999999          5.8609566852552142E-012
 -0.13899999999999998          5.9941591620815693E-012
 -0.13849999999999998          5.7381118086230476E-012
 -0.13799999999999998          5.0791987803167071E-012
 -0.13749999999999998          4.0340400291050127E-012
 -0.13699999999999998          2.6506908647194738E-012
 -0.13649999999999998          1.0067280125855560E-012
 -0.13599999999999998         -7.9440767115565580E-013
 -0.13550000000000001         -2.6304169346152984E-012
 -0.13500000000000001         -4.3693512349896046E-012
 -0.13450000000000001         -5.8799089729111298E-012
 -0.13400000000000001         -7.0425436315968426E-012
 -0.13350000000000001         -7.7614850310658845E-012
 -0.13300000000000001         -7.9742688147144136E-012
 -0.13250000000000001         -7.6593236961186584E-012
 -0.13200000000000001         -6.8414492820911832E-012
 -0.13150000000000001         -5.5916035690550814E-012
 -0.13100000000000001         -4.0249964819438766E-012
 -0.13050000000000000         -2.2919988389852319E-012
 -0.13000000000000000         -5.6721619588750993E-013
 -0.12950000000000000          9.6600939053503865E-013
 -0.12900000000000000          2.1320519134893079E-012
 -0.12850000000000000          2.7826994181134879E-012
 -0.12800000000000000          2.8129957131001193E-012
 -0.12750000000000000          2.1774433384830205E-012
 -0.12700000000000000          9.0063530635078881E-013
 -0.12650000000000000         -9.1755433546253373E-013
 -0.12600000000000000         -3.1026778368747898E-012
 -0.12550000000000000         -5.4130779719718802E-012
 -0.12499999999999999         -7.5548560463101211E-012
 -0.12449999999999999         -9.2063214690574213E-012
 -0.12399999999999999         -1.0039223792557284E-011
 -0.12349999999999998         -9.7542260726890540E-012
 -0.12299999999999998         -8.1094566825590242E-012
 -0.12249999999999998         -4.9485055809983525E-012
 -0.12199999999999998         -2.2903367028447030E-013
 -0.12149999999999998          5.9603975401112397E-012
 -0.12099999999999998          1.3392914381682441E-011
 -0.12049999999999998          2.1700630875587379E-011
 -0.12000000000000000          3.0391675287511077E-011
 -0.11950000000000000          3.8873789603988129E-011
 -0.11899999999999999          4.6487494409497288E-011
 -0.11849999999999999          5.2550991336275388E-011
 -0.11799999999999999          5.6412478854905856E-011
 -0.11749999999999999          5.7497378386228704E-011
 -0.11699999999999999          5.5356358386049465E-011
 -0.11649999999999999          4.9716324806992063E-011
 -0.11599999999999999          4.0510355486800265E-011
 -0.11549999999999999          2.7891284767878055E-011
 -0.11499999999999999          1.2252635538112511E-011
 -0.11449999999999999         -5.8083845892731301E-012
 -0.11399999999999999         -2.5495534503039430E-011
 -0.11349999999999999         -4.5880684668153648E-011
 -0.11299999999999999         -6.5944513738536159E-011
 -0.11249999999999999         -8.4657850174529869E-011
 -0.11199999999999999         -1.0104780900910271E-010
 -0.11149999999999999         -1.1425985158020069E-010
 -0.11099999999999999         -1.2362744161720229E-010
 -0.11049999999999999         -1.2872070076497266E-010
 -0.10999999999999999         -1.2936403337437952E-010
 -0.10949999999999999         -1.2564940754522524E-010
 -0.10899999999999999         -1.1792838927604521E-010
 -0.10849999999999999         -1.0676375755691581E-010
 -0.10799999999999998         -9.2874319346236689E-011
 -0.10749999999999998         -7.7060746672685809E-011
 -0.10699999999999998         -6.0115919187087030E-011
 -0.10649999999999998         -4.2759077528709000E-011
 -0.10599999999999998         -2.5527698011007516E-011
 -0.10549999999999998         -8.7135229587254059E-012
 -0.10499999999999998          7.6458015266234192E-012
 -0.10449999999999998          2.3831072532010111E-011
 -0.10399999999999998          4.0387901356631062E-011
 -0.10349999999999998          5.8115630363619886E-011
 -0.10299999999999998          7.7934270148460882E-011
 -0.10249999999999998          1.0082747831097194E-010
 -0.10199999999999998          1.2766106227690699E-010
 -0.10149999999999998          1.5907304640183639E-010
 -0.10099999999999998          1.9533040462871298E-010
 -0.10049999999999998          2.3621354872105371E-010
  -9.9999999999999978E-002     2.8087149273048340E-010
  -9.9499999999999977E-002     3.2780841929813676E-010
  -9.8999999999999977E-002     3.7486830306576735E-010
  -9.8499999999999976E-002     4.1921630056229731E-010
  -9.7999999999999976E-002     4.5759093736386092E-010
  -9.7499999999999976E-002     4.8626302984189351E-010
  -9.6999999999999975E-002     5.0141885088450522E-010
  -9.6499999999999975E-002     4.9933723822448428E-010
  -9.5999999999999974E-002     4.7664228119970176E-010
  -9.5500000000000002E-002     4.3066253341272898E-010
  -9.5000000000000001E-002     3.5958466759744567E-010
  -9.4500000000000001E-002     2.6278249021238764E-010
  -9.4000000000000000E-002     1.4096931955087655E-010
  -9.3500000000000000E-002    -3.7535261357413141E-012
  -9.2999999999999999E-002    -1.6778008149476165E-010
  -9.2499999999999999E-002    -3.4618935496055769E-010
  -9.1999999999999998E-002    -5.3281529188708987E-010
  -9.1499999999999998E-002    -7.2055605926379940E-010
  -9.0999999999999998E-002    -9.0170271249689904E-010
  -9.0499999999999997E-002    -1.0683388618204503E-009
  -8.9999999999999997E-002    -1.2127645554471655E-009
  -8.9499999999999996E-002    -1.3279187749404286E-009
  -8.8999999999999996E-002    -1.4078423982155641E-009
  -8.8499999999999995E-002    -1.4479766274888561E-009
  -8.7999999999999995E-002    -1.4454761831927954E-009
  -8.7499999999999994E-002    -1.3994619907364836E-009
  -8.6999999999999994E-002    -1.3110740271216059E-009
  -8.6499999999999994E-002    -1.1831262636263773E-009
  -8.5999999999999993E-002    -1.0205851719291559E-009
  -8.5499999999999993E-002    -8.2959750180577885E-010
  -8.4999999999999992E-002    -6.1749372282093873E-010
  -8.4499999999999992E-002    -3.9220679481921650E-010
  -8.3999999999999991E-002    -1.6174982186978326E-010
  -8.3499999999999991E-002     6.6094379969072747E-011
  -8.2999999999999990E-002     2.8449884115211432E-010
  -8.2499999999999990E-002     4.8797815788148569E-010
  -8.1999999999999990E-002     6.7246996859893216E-010
  -8.1499999999999989E-002     8.3564022368420865E-010
  -8.0999999999999989E-002     9.7722263614485882E-010
  -8.0499999999999988E-002     1.0984796405821839E-009
  -7.9999999999999988E-002     1.2021313944288181E-009
  -7.9499999999999987E-002     1.2923434544731549E-009
  -7.8999999999999987E-002     1.3738346016367586E-009
  -7.8499999999999986E-002     1.4516625679306117E-009
  -7.7999999999999986E-002     1.5306476086607290E-009
  -7.7499999999999986E-002     1.6146642911607501E-009
  -7.6999999999999985E-002     1.7066259516695936E-009
  -7.6499999999999985E-002     1.8077598307186804E-009
  -7.5999999999999984E-002     1.9174011267608648E-009
  -7.5499999999999984E-002     2.0329398164875556E-009
  -7.4999999999999983E-002     2.1499837465910332E-009
  -7.4499999999999983E-002     2.2623416473521729E-009
  -7.3999999999999982E-002     2.3623638600867025E-009
  -7.3499999999999982E-002     2.4417332600279451E-009
  -7.2999999999999982E-002     2.4911963603102549E-009
  -7.2499999999999981E-002     2.5019120108993320E-009
  -7.1999999999999981E-002     2.4655608665824502E-009
  -7.1499999999999980E-002     2.3748483179986124E-009
  -7.0999999999999980E-002     2.2242578889830611E-009
  -7.0499999999999979E-002     2.0097417063880130E-009
  -6.9999999999999979E-002     1.7297545618077947E-009
  -6.9499999999999978E-002     1.3834347001306924E-009
  -6.8999999999999978E-002     9.7422947487046940E-010
  -6.8499999999999978E-002     5.0482640290283598E-010
  -6.7999999999999977E-002    -1.9427908934388505E-011
  -6.7499999999999977E-002    -5.9292898368923375E-010
  -6.6999999999999976E-002    -1.2090495271621648E-009
  -6.6499999999999976E-002    -1.8618092623157168E-009
  -6.5999999999999975E-002    -2.5431321493130099E-009
  -6.5499999999999975E-002    -3.2489171353233814E-009
  -6.4999999999999974E-002    -3.9743439650408163E-009
  -6.4499999999999974E-002    -4.7129020686043077E-009
  -6.4000000000000001E-002    -5.4581255071184387E-009
  -6.3500000000000001E-002    -6.2121339183818236E-009
  -6.3000000000000000E-002    -6.9623773413240997E-009
  -6.2500000000000000E-002    -7.7025879008374432E-009
  -6.2000000000000000E-002    -8.4272624434333920E-009
  -6.1499999999999999E-002    -9.1251033396133607E-009
  -6.0999999999999999E-002    -9.7840233692636502E-009
  -6.0499999999999998E-002    -1.0382716020274074E-008
  -5.9999999999999998E-002    -1.0903911551451984E-008
  -5.9499999999999997E-002    -1.1329618132549513E-008
  -5.8999999999999997E-002    -1.1625314932928177E-008
  -5.8499999999999996E-002    -1.1773546582105610E-008
  -5.7999999999999996E-002    -1.1733331639618427E-008
  -5.7499999999999996E-002    -1.1481231965149163E-008
  -5.6999999999999995E-002    -1.0991486831812836E-008
  -5.6499999999999995E-002    -1.0229353364366034E-008
  -5.5999999999999994E-002    -9.1739504881616085E-009
  -5.5499999999999994E-002    -7.8046022977673601E-009
  -5.4999999999999993E-002    -6.0918026179024309E-009
  -5.4499999999999993E-002    -4.0446672677774131E-009
  -5.3999999999999992E-002    -1.6294906535208042E-009
  -5.3499999999999992E-002     1.1300685942572386E-009
  -5.2999999999999992E-002     4.2459156190943759E-009
  -5.2499999999999991E-002     7.7047896951398798E-009
  -5.1999999999999991E-002     1.1497282237371564E-008
  -5.1499999999999990E-002     1.5626916649580380E-008
  -5.0999999999999990E-002     2.0066186934286634E-008
  -5.0499999999999989E-002     2.4793235908759925E-008
  -4.9999999999999989E-002     2.9782153632140762E-008
  -4.9499999999999988E-002     3.5101308526463981E-008
  -4.8999999999999988E-002     4.0679157820022738E-008
  -4.8499999999999988E-002     4.6538520592775967E-008
  -4.7999999999999987E-002     5.2687759932723566E-008
  -4.7499999999999987E-002     5.9103658855974572E-008
  -4.6999999999999986E-002     6.5886695210792823E-008
  -4.6499999999999986E-002     7.2905265824374510E-008
  -4.5999999999999985E-002     8.0369815691483382E-008
  -4.5499999999999985E-002     8.8158920164005394E-008
  -4.4999999999999984E-002     9.6355755374588625E-008
  -4.4499999999999984E-002     1.0505364400614781E-007
  -4.3999999999999984E-002     1.1415035316986177E-007
  -4.3499999999999983E-002     1.2375866731417773E-007
  -4.2999999999999983E-002     1.3394327424975927E-007
  -4.2499999999999982E-002     1.4455737584739836E-007
  -4.1999999999999982E-002     1.5597950664414384E-007
  -4.1499999999999981E-002     1.6778315625742835E-007
  -4.0999999999999981E-002     1.8019626679688372E-007
  -4.0499999999999980E-002     1.9329708322857186E-007
  -3.9999999999999980E-002     2.0713520143544883E-007
  -3.9499999999999980E-002     2.2159906620800029E-007
  -3.8999999999999979E-002     2.3681444361045578E-007
  -3.8499999999999979E-002     2.5281011062361358E-007
  -3.7999999999999978E-002     2.6974541356139525E-007
  -3.7499999999999978E-002     2.8755647463185596E-007
  -3.6999999999999977E-002     3.0640754289379402E-007
  -3.6499999999999977E-002     3.2630373425490689E-007
  -3.5999999999999976E-002     3.4743428045658220E-007
  -3.5499999999999976E-002     3.6993677099417255E-007
  -3.4999999999999976E-002     3.9367037629745028E-007
  -3.4499999999999975E-002     4.1871700773299381E-007
  -3.3999999999999975E-002     4.4555753220265615E-007
  -3.3499999999999974E-002     4.7401590563822538E-007
  -3.2999999999999974E-002     5.0435744469723431E-007
  -3.2499999999999973E-002     5.3679343636758858E-007
  -3.1999999999999973E-002     5.7102408845821628E-007
  -3.1500000000000000E-002     6.0766780052290414E-007
  -3.1000000000000000E-002     6.4641994867997710E-007
  -3.0499999999999999E-002     6.8759436544496566E-007
  -2.9999999999999999E-002     7.3115296572723310E-007
  -2.9499999999999998E-002     7.7779679941158975E-007
  -2.8999999999999998E-002     8.2697749803628540E-007
  -2.8499999999999998E-002     8.7969573314694571E-007
  -2.7999999999999997E-002     9.3514142918138532E-007
  -2.7499999999999997E-002     9.9492410754464800E-007
  -2.6999999999999996E-002     1.0576542308626813E-006
  -2.6499999999999996E-002     1.1250845091126394E-006
  -2.5999999999999995E-002     1.1963549013671582E-006
  -2.5499999999999995E-002     1.2741213595290901E-006
  -2.4999999999999994E-002     1.3557327065427671E-006
  -2.4499999999999994E-002     1.4426979078052682E-006
  -2.3999999999999994E-002     1.5367941159638576E-006
  -2.3499999999999993E-002     1.6364842849725392E-006
  -2.2999999999999993E-002     1.7423330973542761E-006
  -2.2499999999999992E-002     1.8563854382591671E-006
  -2.1999999999999992E-002     1.9780043203354580E-006
  -2.1499999999999991E-002     2.1081248178234091E-006
  -2.0999999999999991E-002     2.2450151391240070E-006
  -2.0499999999999990E-002     2.3922189029690344E-006
  -1.9999999999999990E-002     2.5491362976026721E-006
  -1.9499999999999990E-002     2.7150044843438081E-006
  -1.8999999999999989E-002     2.8919657779624686E-006
  -1.8499999999999989E-002     3.0826270176476100E-006
  -1.7999999999999988E-002     3.2840127914823825E-006
  -1.7499999999999988E-002     3.4952399801113643E-006
  -1.6999999999999987E-002     3.7247618820401840E-006
  -1.6499999999999987E-002     3.9665214899287093E-006
  -1.5999999999999986E-002     4.2198998926323839E-006
  -1.5499999999999986E-002     4.4928779061592650E-006
  -1.4999999999999986E-002     4.7848379836068489E-006
  -1.4499999999999985E-002     5.0907897275465075E-006
  -1.3999999999999985E-002     5.4192992138268892E-006
  -1.3499999999999984E-002     5.7618913160695229E-006
  -1.2999999999999984E-002     6.1312157413340174E-006
  -1.2499999999999983E-002     6.5151375565619674E-006
  -1.1999999999999983E-002     6.9309589889599010E-006
  -1.1499999999999982E-002     7.3656788117659744E-006
  -1.0999999999999982E-002     7.8307875810423866E-006
  -1.0499999999999982E-002     8.3201284724054858E-006
  -9.9999999999999811E-003     8.8370716184726916E-006
  -9.4999999999999807E-003     9.3881499196868390E-006
  -8.9999999999999802E-003     9.9716671684291214E-006
  -8.4999999999999798E-003     1.0589224075374659E-005
  -7.9999999999999793E-003     1.1242424079682678E-005
  -7.4999999999999789E-003     1.1930902473977767E-005
  -6.9999999999999785E-003     1.2669020179600921E-005
  -6.4999999999999780E-003     1.3445849617710337E-005
  -5.9999999999999776E-003     1.4278957678470761E-005
  -5.4999999999999771E-003     1.5135977264435496E-005
  -4.9999999999999767E-003     1.6056694221333601E-005
  -4.4999999999999762E-003     1.7038641090039164E-005
  -3.9999999999999758E-003     1.8071928934659809E-005
  -3.4999999999999754E-003     1.9153669200022705E-005
  -2.9999999999999749E-003     2.0301404219935648E-005
  -2.4999999999999745E-003     2.1513995307032019E-005
  -1.9999999999999740E-003     2.2815585907665081E-005
  -1.4999999999999736E-003     2.4179707907023840E-005
  -9.9999999999997313E-004     2.5637284124968573E-005
  -4.9999999999997269E-004     2.7153047994943336E-005
   0.0000000000000000          2.8767724870704114E-005
   5.0000000000000044E-004     3.0476161555270664E-005
   1.0000000000000009E-003     3.2273233955493197E-005
   1.5000000000000013E-003     3.4185086406068876E-005
   2.0000000000000018E-003     3.6210090911481529E-005
   2.5000000000000022E-003     3.8324422348523512E-005
   3.0000000000000027E-003     4.0594277379568666E-005
   3.5000000000000031E-003     4.2961637518601492E-005
   4.0000000000000036E-003     4.5470609620679170E-005
   4.5000000000000040E-003     4.8132744268514216E-005
   5.0000000000000044E-003     5.0909478886751458E-005
   5.5000000000000049E-003     5.3856663726037368E-005
   6.0000000000000053E-003     5.6957698689075187E-005
   6.5000000000000058E-003     6.0220037994440645E-005
   7.0000000000000062E-003     6.3651830714661628E-005
   7.5000000000000067E-003     6.7280881921760738E-005
   8.0000000000000071E-003     7.1142938395496458E-005
   8.5000000000000075E-003     7.5158095569349825E-005
   9.0000000000000080E-003     7.9417084634769708E-005
   9.5000000000000084E-003     8.3909959357697517E-005
   1.0000000000000009E-002     8.8630476966500282E-005
   1.0500000000000009E-002     9.3668444606009871E-005
   1.1000000000000010E-002     9.8949356470257044E-005
   1.1500000000000010E-002     1.0451082926010713E-004
   1.2000000000000011E-002     1.1030475434381515E-004
   1.2500000000000011E-002     1.1651746171992272E-004
   1.3000000000000012E-002     1.2298866931814700E-004
   1.3500000000000012E-002     1.2983646593056619E-004
   1.4000000000000012E-002     1.3703573495149612E-004
   1.4500000000000013E-002     1.4458406076300889E-004
   1.5000000000000013E-002     1.5254775644280016E-004
   1.5500000000000014E-002     1.6093581507448107E-004
   1.6000000000000014E-002     1.6974062600638717E-004
   1.6500000000000015E-002     1.7898379883263260E-004
   1.7000000000000015E-002     1.8879072740674019E-004
   1.7500000000000016E-002     1.9908133253920823E-004
   1.8000000000000016E-002     2.0986297749914229E-004
   1.8500000000000016E-002     2.2116000764071941E-004
   1.9000000000000017E-002     2.3304221394937485E-004
   1.9500000000000017E-002     2.4566228967159986E-004
   2.0000000000000018E-002     2.5872371043078601E-004
   2.0500000000000018E-002     2.7259771013632417E-004
   2.1000000000000019E-002     2.8716167435050011E-004
   2.1500000000000019E-002     3.0245806556195021E-004
   2.2000000000000020E-002     3.1809267238713801E-004
   2.2500000000000020E-002     3.3494783565402031E-004
   2.3000000000000020E-002     3.5241106525063515E-004
   2.3500000000000021E-002     3.7101746420376003E-004
   2.4000000000000021E-002     3.9054587250575423E-004
   2.4500000000000022E-002     4.1081238305196166E-004
   2.5000000000000022E-002     4.3249892769381404E-004
   2.5500000000000023E-002     4.5505817979574203E-004
   2.6000000000000023E-002     4.7831452684476972E-004
   2.6500000000000024E-002     5.0322525203227997E-004
   2.7000000000000024E-002     5.2908895304426551E-004
   2.7500000000000024E-002     5.5653700837865472E-004
   2.8000000000000025E-002     5.8524298947304487E-004
   2.8500000000000025E-002     6.1523885233327746E-004
   2.9000000000000026E-002     6.4713414758443832E-004
   2.9500000000000026E-002     6.7975674755871296E-004
   3.0000000000000027E-002     7.1374606341123581E-004
   3.0500000000000027E-002     7.4979907367378473E-004
   3.1000000000000028E-002     7.8808260150253773E-004
   3.1500000000000028E-002     8.2733761519193649E-004
   3.2000000000000028E-002     8.6828251369297504E-004