 -0.23999999999999999          0.0000000000000000     
 -0.23949999999999999          0.0000000000000000     
 -0.23899999999999999          0.0000000000000000     
 -0.23849999999999999          0.0000000000000000     
 -0.23799999999999999         -7.0883807043926798E-021
 -0.23749999999999999         -5.5462238101989473E-020
 -0.23699999999999999         -2.3166265714321291E-019
 -0.23649999999999999         -6.7537506982971018E-019
 -0.23599999999999999         -1.5077087566800187E-018
 -0.23549999999999999         -2.6400743567530378E-018
 -0.23499999999999999         -3.4515235939507112E-018
 -0.23449999999999999         -2.3948561796903402E-018
 -0.23399999999999999          3.3095629147042768E-018
 -0.23349999999999999          1.7637737542120669E-017
 -0.23299999999999998          4.5079468399194598E-017
 -0.23249999999999998          8.9047993414955160E-017
 -0.23199999999999998          1.4929193018177372E-016
 -0.23149999999999998          2.1852748317543031E-016
 -0.23099999999999998          2.7892062203850196E-016
 -0.23049999999999998          2.9948376311603568E-016
 -0.22999999999999998          2.3578689510514451E-016
 -0.22949999999999998          3.3473252420878618E-017
 -0.22899999999999998         -3.6322152450674296E-016
 -0.22849999999999998         -9.9751007494872650E-016
 -0.22799999999999998         -1.8814446074410682E-015
 -0.22749999999999998         -2.9750173108049265E-015
 -0.22699999999999998         -4.1669779701654463E-015
 -0.22649999999999998         -5.2627285271510230E-015
 -0.22599999999999998         -5.9852733580921262E-015
 -0.22549999999999998         -5.9946579275104456E-015
 -0.22499999999999998         -4.9293507644133922E-015
 -0.22449999999999998         -2.4695315829435732E-015
 -0.22399999999999998          1.5824783901845997E-015
 -0.22349999999999998          7.2147180885922708E-015
 -0.22299999999999998          1.4126061176758935E-014
 -0.22249999999999998          2.1673115385232566E-014
 -0.22199999999999998          2.8862690819393563E-014
 -0.22150000000000000          3.4405956522301572E-014
 -0.22100000000000000          3.6843346266414024E-014
 -0.22050000000000000          3.4738236911358547E-014
 -0.22000000000000000          2.6924004103702884E-014
 -0.21950000000000000          1.2774795640311576E-014
 -0.21900000000000000         -7.5417048814743820E-015
 -0.21850000000000000         -3.2878376305816896E-014
 -0.21800000000000000         -6.1038174141174546E-014
 -0.21750000000000000         -8.8858077689664447E-014
 -0.21700000000000000         -1.1246773855517091E-013
 -0.21650000000000000         -1.2771656376643237E-013
 -0.21600000000000000         -1.3073205967438896E-013
 -0.21550000000000000         -1.1854259256579801E-013
 -0.21500000000000000         -8.9673961092797354E-014
 -0.21450000000000000         -4.4618024038537035E-014
 -0.21400000000000000          1.3923256806740639E-014
 -0.21350000000000000          8.1091728504796047E-014
 -0.21299999999999999          1.5025823419442802E-013
 -0.21249999999999999          2.1372048193646873E-013
 -0.21199999999999999          2.6363875065018144E-013
 -0.21149999999999999          2.9308530648822330E-013
 -0.21099999999999999          2.9704837221385693E-013
 -0.21049999999999999          2.7322350682230985E-013
 -0.20999999999999999          2.2244390090157316E-013
 -0.20949999999999999          1.4865195456465835E-013
 -0.20899999999999999          5.8386241312198348E-014
 -0.20849999999999999         -4.0156335448610366E-014
 -0.20799999999999999         -1.3834100186178281E-013
 -0.20749999999999999         -2.2839223759596954E-013
 -0.20699999999999999         -3.0453093157984175E-013
 -0.20649999999999999         -3.6372665709916627E-013
 -0.20599999999999999         -4.0589685857110194E-013
 -0.20549999999999999         -4.3347890966356008E-013
 -0.20499999999999999         -4.5042004036506630E-013
 -0.20449999999999999         -4.6075072639444218E-013
 -0.20399999999999999         -4.6700811397514653E-013
 -0.20349999999999999         -4.6883373810406800E-013
 -0.20299999999999999         -4.6206993545529801E-013
 -0.20249999999999999         -4.3861657383754830E-013
 -0.20199999999999999         -3.8718804315890526E-013
 -0.20149999999999998         -2.9495112437249118E-013
 -0.20099999999999998         -1.4985332029962383E-013
 -0.20049999999999998          5.6699588297217343E-014
 -0.19999999999999998          3.2725690886049880E-013
 -0.19949999999999998          6.5629202206231075E-013
 -0.19899999999999998          1.0291304141863310E-012
 -0.19849999999999998          1.4220998093298554E-012
 -0.19799999999999998          1.8039680932406558E-012
 -0.19749999999999998          2.1385120419903171E-012
 -0.19699999999999998          2.3878577999587882E-012
 -0.19649999999999998          2.5160941902098280E-012
 -0.19600000000000001          2.4926019926308673E-012
 -0.19550000000000001          2.2946107445350823E-012
 -0.19500000000000001          1.9086446017747149E-012
 -0.19450000000000001          1.3307616748676431E-012
 -0.19400000000000001          5.6576458509202112E-013
 -0.19350000000000001         -3.7419201676428195E-013
 -0.19300000000000000         -1.4709899382335322E-012
 -0.19250000000000000         -2.7012634457697565E-012
 -0.19200000000000000         -4.0358534267992119E-012
 -0.19150000000000000         -5.4376261881446875E-012
 -0.19100000000000000         -6.8576120043338341E-012
 -0.19050000000000000         -8.2297895607280818E-012
 -0.19000000000000000         -9.4652097907367643E-012
 -0.18950000000000000         -1.0446441329830711E-011
 -0.18900000000000000         -1.1023436024599691E-011
 -0.18850000000000000         -1.1011863995222309E-011
 -0.18800000000000000         -1.0194733478090501E-011
 -0.18750000000000000         -8.3276839836727611E-012
 -0.18700000000000000         -5.1478288951005196E-012
 -0.18650000000000000         -3.8548623547275041E-013
 -0.18600000000000000          6.2223566799011015E-012
 -0.18550000000000000          1.4918322126840601E-011
 -0.18500000000000000          2.5912282711111905E-011
 -0.18450000000000000          3.9371873773633610E-011
 -0.18400000000000000          5.5417051420631860E-011
 -0.18350000000000000          7.4119346648869936E-011
 -0.18300000000000000          9.5505950558076829E-011
 -0.18250000000000000          1.1956797083835736E-010
 -0.18200000000000000          1.4627187086074451E-010
 -0.18149999999999999          1.7557265663503602E-010
 -0.18099999999999999          2.0742720579940739E-010
 -0.18049999999999999          2.4180625177616622E-010
 -0.17999999999999999          2.7870388496641421E-010
 -0.17949999999999999          3.1814375117303269E-010
 -0.17899999999999999          3.6018182549571027E-010
 -0.17849999999999999          4.0490614010240255E-010
 -0.17799999999999999          4.5243381807267115E-010
 -0.17749999999999999          5.0290699462464077E-010
 -0.17699999999999999          5.5648841576216120E-010
 -0.17649999999999999          6.1335757726364353E-010
 -0.17599999999999999          6.7370867523484912E-010
 -0.17549999999999999          7.3775037304947521E-010
 -0.17499999999999999          8.0570815336930168E-010
 -0.17449999999999999          8.7782814527406124E-010
 -0.17399999999999999          9.5438281151106384E-010
 -0.17349999999999999          1.0356767028402856E-009
 -0.17299999999999999          1.1220529380203177E-009
 -0.17249999999999999          1.2138982880359167E-009
 -0.17199999999999999          1.3116469648003001E-009
 -0.17149999999999999          1.4157827690829040E-009
 -0.17099999999999999          1.5268386452381475E-009
 -0.17049999999999998          1.6453949838315416E-009
 -0.16999999999999998          1.7720753402107117E-009
 -0.16949999999999998          1.9075420389191829E-009
 -0.16899999999999998          2.0524899130014485E-009
 -0.16849999999999998          2.2076405355049074E-009
 -0.16799999999999998          2.3737385423671128E-009
 -0.16749999999999998          2.5515476447188187E-009
 -0.16699999999999998          2.7418499747776509E-009
 -0.16649999999999998          2.9454480403369214E-009
 -0.16599999999999998          3.1631691887197811E-009
 -0.16549999999999998          3.3958733630879466E-009
 -0.16499999999999998          3.6444622008149031E-009
 -0.16449999999999998          3.9098931983093469E-009
 -0.16399999999999998          4.1931894906252279E-009
 -0.16349999999999998          4.4954546487852638E-009
 -0.16299999999999998          4.8178844422687681E-009
 -0.16249999999999998          5.1617761378385730E-009
 -0.16199999999999998          5.5285376869520275E-009
 -0.16149999999999998          5.9196921333853550E-009
 -0.16099999999999998          6.3368807543775349E-009
 -0.16049999999999998          6.7818650697679258E-009
 -0.15999999999999998          7.2565273004322713E-009
 -0.15949999999999998          7.7628701171556909E-009
 -0.15899999999999997          8.3030167293711887E-009
 -0.15849999999999997          8.8792186993318778E-009
 -0.15799999999999997          9.4938562651294463E-009
 -0.15749999999999997          1.0149444725176339E-008
 -0.15699999999999997          1.0848645945859824E-008
 -0.15649999999999997          1.1594275791036030E-008
 -0.15599999999999997          1.2389312792338802E-008
 -0.15549999999999997          1.3236905617059129E-008
 -0.15499999999999997          1.4140381109682877E-008
 -0.15449999999999997          1.5103247026040310E-008
 -0.15399999999999997          1.6129203835918720E-008
 -0.15349999999999997          1.7222138841989043E-008
 -0.15299999999999997          1.8386139184804832E-008
 -0.15249999999999997          1.9625500647223413E-008
 -0.15200000000000000          2.0944732503133359E-008
 -0.15150000000000000          2.2348584877037035E-008
 -0.15100000000000000          2.3842062244518708E-008
 -0.15049999999999999          2.5430450778552876E-008
 -0.14999999999999999          2.7119350894557751E-008
 -0.14949999999999999          2.8914706088945590E-008
 -0.14899999999999999          3.0822838972574909E-008
 -0.14849999999999999          3.2850482860640672E-008
 -0.14799999999999999          3.5004812729470863E-008
 -0.14749999999999999          3.7293463932232816E-008
 -0.14699999999999999          3.9724564610242968E-008
 -0.14649999999999999          4.2306755890499238E-008
 -0.14599999999999999          4.5049210741364200E-008
 -0.14549999999999999          4.7961643086190597E-008
 -0.14499999999999999          5.1054326791165519E-008
 -0.14449999999999999          5.4338121815080742E-008
 -0.14399999999999999          5.7824496394619218E-008
 -0.14349999999999999          6.1525547407540918E-008
 -0.14299999999999999          6.5454037156748053E-008
 -0.14249999999999999          6.9623437941338841E-008
 -0.14199999999999999          7.4047944636895982E-008
 -0.14149999999999999          7.8742555646113006E-008
 -0.14099999999999999          8.3723100416068996E-008
 -0.14049999999999999          8.9006289068282065E-008
 -0.13999999999999999          9.4609774515173312E-008
 -0.13949999999999999          1.0055220703653120E-007
 -0.13899999999999998          1.0685327396162229E-007
 -0.13849999999999998          1.1353378798650911E-007
 -0.13799999999999998          1.2061567424523013E-007
 -0.13749999999999998          1.2812212375912473E-007
 -0.13699999999999998          1.3607756770175078E-007
 -0.13649999999999998          1.4450778057257446E-007
 -0.13599999999999998          1.5343993655416239E-007
 -0.13550000000000001          1.6290269313729084E-007
 -0.13500000000000001          1.7292623217270268E-007
 -0.13450000000000001          1.8354230750839031E-007
 -0.13400000000000001          1.9478438579126009E-007
 -0.13350000000000001          2.0668773016975560E-007
 -0.13300000000000001          2.1928945080504845E-007
 -0.13250000000000001          2.3262865942618367E-007
 -0.13200000000000001          2.4674656634112499E-007
 -0.13150000000000001          2.6168655817288569E-007
 -0.13100000000000001          2.7749437419082780E-007
 -0.13050000000000000          2.9421824918392441E-007
 -0.13000000000000000          3.1190897987661027E-007
 -0.12950000000000000          3.3062006182960968E-007
 -0.12900000000000000          3.5040788204119997E-007
 -0.12850000000000000          3.7133177830698477E-007
 -0.12800000000000000          3.9345419817708833E-007
 -0.12750000000000000          4.1684081784511327E-007
 -0.12700000000000000          4.4156069436258544E-007
 -0.12650000000000000          4.6768634563400819E-007
 -0.12600000000000000          4.9529407043859200E-007
 -0.12550000000000000          5.2446389678318564E-007
 -0.12499999999999999          5.5528000315627662E-007
 -0.12449999999999999          5.8783080559936300E-007
 -0.12399999999999999          6.2220912113092027E-007
 -0.12349999999999998          6.5851266702505632E-007
 -0.12299999999999998          6.9684392721621515E-007
 -0.12249999999999998          7.3731078879060962E-007
 -0.12199999999999998          7.8002652790403978E-007
 -0.12149999999999998          8.2511025665815062E-007
 -0.12099999999999998          8.7268691729465280E-007
 -0.12049999999999998          9.2288795975819183E-007
 -0.12000000000000000          9.7585127661649103E-007
 -0.11950000000000000          1.0317215914001188E-006
 -0.11899999999999999          1.0906508850456043E-006
 -0.11849999999999999          1.1527983480804770E-006
 -0.11799999999999999          1.2183312545088355E-006
 -0.11749999999999999          1.2874247305757671E-006
 -0.11699999999999999          1.3602623157157703E-006
 -0.11649999999999999          1.4370367056509224E-006
 -0.11599999999999999          1.5179495503865942E-006
 -0.11549999999999999          1.6032124431691111E-006
 -0.11499999999999999          1.6930470181089877E-006
 -0.11449999999999999          1.7876858249405069E-006
 -0.11399999999999999          1.8873722435436869E-006
 -0.11349999999999999          1.9923614695967581E-006
 -0.11299999999999999          2.1029206117701416E-006
 -0.11249999999999999          2.2193295413495243E-006
 -0.11199999999999999          2.3418815417769916E-006
 -0.11149999999999999          2.4708834179213031E-006
 -0.11099999999999999          2.6066568974734853E-006
 -0.11049999999999999          2.7495381383693324E-006
 -0.10999999999999999          2.8998791343686693E-006
 -0.10949999999999999          3.0580484492105022E-006
 -0.10899999999999999          3.2244312833589057E-006
 -0.10849999999999999          3.3994308807226011E-006
 -0.10799999999999998          3.5834688099506491E-006
 -0.10749999999999998          3.7769861888383067E-006
 -0.10699999999999998          3.9804428768114933E-006
 -0.10649999999999998          4.1943212145815693E-006
 -0.10599999999999998          4.4191249841808786E-006
 -0.10549999999999998          4.6553798437232571E-006
 -0.10499999999999998          4.9036351684073369E-006
 -0.10449999999999998          5.1644657568746692E-006
 -0.10399999999999998          5.4384718988761319E-006
 -0.10349999999999998          5.7262791880138609E-006
 -0.10299999999999998          6.0285428591738303E-006
 -0.10249999999999998          6.3459457491686471E-006
 -0.10199999999999998          6.6792017434110274E-006
 -0.10149999999999998          7.0290546288508119E-006
 -0.10099999999999998          7.3962825686613202E-006
 -0.10049999999999998          7.7816946901266894E-006
  -9.9999999999999978E-002     8.1861382306243745E-006
  -9.9499999999999977E-002     8.6104957447764173E-006
  -9.8999999999999977E-002     9.0556877396055880E-006
  -9.8499999999999976E-002     9.5226724084751281E-006
  -9.7999999999999976E-002     1.0012452055172245E-005
  -9.7499999999999976E-002     1.0526068640561821E-005
  -9.6999999999999975E-002     1.1064609706119869E-005
  -9.6499999999999975E-002     1.1629207837811221E-005
  -9.5999999999999974E-002     1.2221044916356671E-005
  -9.5500000000000002E-002     1.2841350355183475E-005
  -9.5000000000000001E-002     1.3491404160621467E-005
  -9.4500000000000001E-002     1.4172541754584094E-005
  -9.4000000000000000E-002     1.4886149856519784E-005
  -9.3500000000000000E-002     1.5633677226396362E-005
  -9.2999999999999999E-002     1.6416629862552513E-005
  -9.2499999999999999E-002     1.7236575230892245E-005
  -9.1999999999999998E-002     1.8095140976792349E-005
  -9.1499999999999998E-002     1.8994025060864077E-005
  -9.0999999999999998E-002     1.9934994548961397E-005
  -9.0499999999999997E-002     2.0919883269785675E-005
  -8.9999999999999997E-002     2.1950602668304847E-005
  -8.9499999999999996E-002     2.3029136678441195E-005
  -8.8999999999999996E-002     2.4157550485540160E-005
  -8.8499999999999995E-002     2.5337988454320962E-005
  -8.7999999999999995E-002     2.6572679993155041E-005
  -8.7499999999999994E-002     2.7863942921059579E-005
  -8.6999999999999994E-002     2.9214183152560340E-005
  -8.6499999999999994E-002     3.0625905148590492E-005
  -8.5999999999999993E-002     3.2101702487279566E-005
  -8.5499999999999993E-002     3.3644271300761924E-005
  -8.4999999999999992E-002     3.5256409820341280E-005
  -8.4499999999999992E-002     3.6941025892235144E-005
  -8.3999999999999991E-002     3.8701141224176465E-005
  -8.3499999999999991E-002     4.0539882634641494E-005
  -8.2999999999999990E-002     4.2460501553617753E-005
  -8.2499999999999990E-002     4.4466369702603428E-005
  -8.1999999999999990E-002     4.6560982316401386E-005
  -8.1499999999999989E-002     4.8747962548160324E-005
  -8.0999999999999989E-002     5.1031068411917075E-005
  -8.0499999999999988E-002     5.3414198396791658E-005
  -7.9999999999999988E-002     5.5901386878525857E-005
  -7.9499999999999987E-002     5.8496824236469702E-005
  -7.8999999999999987E-002     6.1204849152641844E-005
  -7.8499999999999986E-002     6.4029949430539348E-005
  -7.7999999999999986E-002     6.6976783242278751E-005
  -7.7499999999999986E-002     7.0050164353794146E-005
  -7.6999999999999985E-002     7.3255091359766990E-005
  -7.6499999999999985E-002     7.6596726873615724E-005
  -7.5999999999999984E-002     8.0080416127180585E-005
  -7.5499999999999984E-002     8.3711698270461972E-005
  -7.4999999999999983E-002     8.7496310401222267E-005
  -7.4499999999999983E-002     9.1440173798168516E-005
  -7.3999999999999982E-002     9.5549417853384871E-005
  -7.3499999999999982E-002     9.9830382372240802E-005
  -7.2999999999999982E-002     1.0428962882166869E-004
  -7.2499999999999981E-002     1.0893392736987539E-004
  -7.1999999999999981E-002     1.1377028537969784E-004
  -7.1499999999999980E-002     1.1880594117456240E-004
  -7.0999999999999980E-002     1.2404838102220159E-004
  -7.0499999999999979E-002     1.2950532699637244E-004
  -6.9999999999999979E-002     1.3518477765889613E-004
  -6.9499999999999978E-002     1.4109495917942209E-004
  -6.8999999999999978E-002     1.4724438412644424E-004
  -6.8499999999999978E-002     1.5364186283353716E-004
  -6.7999999999999977E-002     1.6029644988993578E-004
  -6.7499999999999977E-002     1.6721752534516076E-004
  -6.6999999999999976E-002     1.7441474367880329E-004
  -6.6499999999999976E-002     1.8189808548125505E-004
  -6.5999999999999975E-002     1.8967781498143029E-004
  -6.5499999999999975E-002     1.9776454317764806E-004
  -6.4999999999999974E-002     2.0616918892369448E-004
  -6.4499999999999974E-002     2.1490303557281383E-004
  -6.4000000000000001E-002     2.2397770328506147E-004
  -6.3500000000000001E-002     2.3340514158042729E-004
  -6.3000000000000000E-002     2.4319771788088940E-004
  -6.2500000000000000E-002     2.5336806775947773E-004
  -6.2000000000000000E-002     2.6392935563271879E-004
  -6.1499999999999999E-002     2.7489502293392282E-004
  -6.0999999999999999E-002     2.8627893576838081E-004
  -6.0499999999999998E-002     2.9809536297419103E-004
  -5.9999999999999998E-002     3.1035902832571153E-004
  -5.9499999999999997E-002     3.2308500380857984E-004
  -5.8999999999999997E-002     3.3628887235863055E-004
  -5.8499999999999996E-002     3.4998665549530966E-004
  -5.7999999999999996E-002     3.6419476466236335E-004
  -5.7499999999999996E-002     3.7893013458070648E-004
  -5.6999999999999995E-002     3.9421015092328795E-004
  -5.6499999999999995E-002     4.1005266984446564E-004
  -5.5999999999999994E-002     4.2647605877705095E-004
  -5.5499999999999994E-002     4.4349916648517295E-004
  -5.4999999999999993E-002     4.6114140383322780E-004
  -5.4499999999999993E-002     4.7942261952134337E-004
  -5.3999999999999992E-002     4.9836334135577886E-004
  -5.3499999999999992E-002     5.1798443191639434E-004
  -5.2999999999999992E-002     5.3830751231847293E-004
  -5.2499999999999991E-002     5.5935464747296519E-004
  -5.1999999999999991E-002     5.8114843145066824E-004
  -5.1499999999999990E-002     6.0371214754870639E-004
  -5.0999999999999990E-002     6.2706965144482718E-004
  -5.0499999999999989E-002     6.5124532855870081E-004
  -4.9999999999999989E-002     6.7626418467983868E-004
  -4.9499999999999988E-002     7.0215193056342995E-004
  -4.8999999999999988E-002     7.2893490148912086E-004
  -4.8499999999999988E-002     7.5663989900320362E-004
  -4.7999999999999987E-002     7.8529464413757311E-004
  -4.7499999999999987E-002     8.1492737296138195E-004
  -4.6999999999999986E-002     8.4556696779874616E-004
  -4.6499999999999986E-002     8.7724299528456090E-004
  -4.5999999999999985E-002     9.0998576728322685E-004
  -4.5499999999999985E-002     9.4382630954400202E-004
  -4.4999999999999984E-002     9.7879627437363523E-004
  -4.4499999999999984E-002     1.0149280590914256E-003
  -4.3999999999999984E-002     1.0522548167440173E-003
  -4.3499999999999983E-002     1.0908104818769305E-003
  -4.2999999999999983E-002     1.1306296471082153E-003
  -4.2499999999999982E-002     1.1717476227648457E-003
  -4.1999999999999982E-002     1.2142006343435654E-003
  -4.1499999999999981E-002     1.2580253741609148E-003
  -4.0999999999999981E-002     1.3032597087879690E-003
  -4.0499999999999980E-002     1.3499419569416265E-003
  -3.9999999999999980E-002     1.3981112315502140E-003
  -3.9499999999999980E-002     1.4478076156916083E-003
  -3.8999999999999979E-002     1.4990719945191478E-003
  -3.8499999999999979E-002     1.5519458093198016E-003
  -3.7999999999999978E-002     1.6064714611197376E-003
  -3.7499999999999978E-002     1.6626925020301890E-003
  -3.6999999999999977E-002     1.7206527489762040E-003
  -3.6499999999999977E-002     1.7803971590509618E-003
  -3.5999999999999976E-002     1.8419713726068035E-003
  -3.5499999999999976E-002     1.9054219901282585E-003
  -3.4999999999999976E-002     1.9707964383692432E-003
  -3.4499999999999975E-002     2.0381429340314804E-003
  -3.3999999999999975E-002     2.1075103153588019E-003
  -3.3499999999999974E-002     2.1789485586528774E-003
  -3.2999999999999974E-002     2.2525083306753567E-003
  -3.2499999999999973E-002     2.3282410490201473E-003
  -3.1999999999999973E-002     2.4061995241488488E-003
  -3.1500000000000000E-002     2.4864365663325692E-003
  -3.1000000000000000E-002     2.5690066446139906E-003
  -3.0499999999999999E-002     2.6539644333994821E-003
  -2.9999999999999999E-002     2.7413655837846824E-003
  -2.9499999999999998E-002     2.8312668938002658E-003
  -2.8999999999999998E-002     2.9237256903411322E-003
  -2.8499999999999998E-002     3.0188001603489441E-003
  -2.7999999999999997E-002     3.1165490177669439E-003
  -2.7499999999999997E-002     3.2170321339042231E-003
  -2.6999999999999996E-002     3.3203099173385762E-003
  -2.6499999999999996E-002     3.4264441268383431E-003
  -2.5999999999999995E-002     3.5354965736533045E-003
  -2.5499999999999995E-002     3.6475302791345227E-003
  -2.4999999999999994E-002     3.7626086509823589E-003
  -2.4499999999999994E-002     3.8807963643679236E-003
  -2.3999999999999994E-002     4.0021585746070959E-003
  -2.3499999999999993E-002     4.1267606472039729E-003
  -2.2999999999999993E-002     4.2546698420997588E-003
  -2.2499999999999992E-002     4.3859526024798779E-003
  -2.1999999999999992E-002     4.5206771852099089E-003
  -2.1499999999999991E-002     4.6589122663324356E-003
  -2.0999999999999991E-002     4.8007262332167323E-003
  -2.0499999999999990E-002     4.9461887822990838E-003
  -1.9999999999999990E-002     5.0953706079392008E-003
  -1.9499999999999990E-002     5.2483424088401436E-003
  -1.8999999999999989E-002     5.4051749627996668E-003
  -1.8499999999999989E-002     5.5659409023190208E-003
  -1.7999999999999988E-002     5.7307120789883079E-003
  -1.7499999999999988E-002     5.8995611577103459E-003
  -1.6999999999999987E-002     6.0725613161515882E-003
  -1.6499999999999987E-002     6.2497859185336813E-003
  -1.5999999999999986E-002     6.4313095732800828E-003
  -1.5499999999999986E-002     6.6172060236748473E-003
  -1.4999999999999986E-002     6.8075501872135250E-003
  -1.4499999999999985E-002     7.0024157692555981E-003
  -1.3999999999999985E-002     7.2018786390631358E-003
  -1.3499999999999984E-002     7.4060132852153231E-003
  -1.2999999999999984E-002     7.6148949911046069E-003
  -1.2499999999999983E-002     7.8285988276915811E-003
  -1.1999999999999983E-002     8.0472007946968613E-003
  -1.1499999999999982E-002     8.2707749662667453E-003
  -1.0999999999999982E-002     8.4993975316939759E-003
  -1.0499999999999982E-002     8.7331436236886585E-003
  -9.9999999999999811E-003     8.9720885363845111E-003
  -9.4999999999999807E-003     9.2163056669071330E-003
  -8.9999999999999802E-003     9.4658712463458992E-003
  -8.4999999999999798E-003     9.7208579847925733E-003
  -7.9999999999999793E-003     9.9813401862721002E-003
  -7.4999999999999789E-003     1.0247390716757062E-002
  -6.9999999999999785E-003     1.0519083180572587E-002
  -6.4999999999999780E-003     1.0796489512278382E-002
  -5.9999999999999776E-003     1.1079681679798083E-002
  -5.4999999999999771E-003     1.1368731643350748E-002
  -4.9999999999999767E-003     1.1663708668190144E-002
  -4.4999999999999762E-003     1.1964682276033685E-002
  -3.9999999999999758E-003     1.2271721790831032E-002
  -3.4999999999999754E-003     1.2584894833893575E-002
  -2.9999999999999749E-003     1.2904268896147547E-002
  -2.4999999999999745E-003     1.3229909163309538E-002
  -1.9999999999999740E-003     1.3561879542395914E-002
  -1.4999999999999736E-003     1.3900244367104225E-002
  -9.9999999999997313E-004     1.4245065897037166E-002
  -4.9999999999997269E-004     1.4596403615711106E-002
   0.0000000000000000          1.4954317271883080E-002
   5.0000000000000044E-004     1.5318864890573144E-002
   1.0000000000000009E-003     1.5690102484636634E-002
   1.5000000000000013E-003     1.6068085367737024E-002
   2.0000000000000018E-003     1.6452863230313742E-002
   2.5000000000000022E-003     1.6844490692798891E-002
   3.0000000000000027E-003     1.7243014856137447E-002
   3.5000000000000031E-003     1.7648480890738671E-002
   4.0000000000000036E-003     1.8060934017856356E-002
   4.5000000000000040E-003     1.8480417679365056E-002
   5.0000000000000044E-003     1.8906972012061776E-002
   5.5000000000000049E-003     1.9340633216003510E-002
   6.0000000000000053E-003     1.9781439360033470E-002
   6.5000000000000058E-003     2.0229421138229606E-002
   7.0000000000000062E-003     2.0684611576701577E-002
   7.5000000000000067E-003     2.1147034101542443E-002
   8.0000000000000071E-003     2.1616717725324412E-002
   8.5000000000000075E-003     2.2093680745488238E-002
   9.0000000000000080E-003     2.2577944679288243E-002
   9.5000000000000084E-003     2.3069524108978320E-002
   1.0000000000000009E-002     2.3568431783969546E-002
   1.0500000000000009E-002     2.4074674803626836E-002
   1.1000000000000010E-002     2.4588260039507950E-002
   1.1500000000000010E-002     2.5109191268018857E-002
   1.2000000000000011E-002     2.5637462745687813E-002
   1.2500000000000011E-002     2.6173074244504636E-002
   1.3000000000000012E-002     2.6716014918839990E-002
   1.3500000000000012E-002     2.7266271458412497E-002
   1.4000000000000012E-002     2.7823829342311722E-002
   1.4500000000000013E-002     2.8388666274856096E-002
   1.5000000000000013E-002     2.8960756510564633E-002
   1.5500000000000014E-002     2.9540073889049320E-002
   1.6000000000000014E-002     3.0126583625784797E-002
   1.6500000000000015E-002     3.0720246937428822E-002
   1.7000000000000015E-002     3.1321024839654078E-002
   1.7500000000000016E-002     3.1928869541840529E-002
   1.8000000000000016E-002     3.2543727739283775E-002
   1.8500000000000016E-002     3.3165543479523663E-002
   1.9000000000000017E-002     3.3794258138141256E-002
   1.9500000000000017E-002     3.4429805455362603E-002
   2.0000000000000018E-002     3.5072114663631929E-002
   2.0500000000000018E-002     3.5721108652804506E-002
   2.1000000000000019E-002     3.6376702197202015E-002
   2.1500000000000019E-002     3.7038813933233564E-002
   2.2000000000000020E-002     3.7707352401590968E-002
   2.2500000000000020E-002     3.8382220317921545E-002
   2.3000000000000020E-002     3.9063311430353818E-002
   2.3500000000000021E-002     3.9750521846705480E-002
   2.4000000000000021E-002     4.0443740251035747E-002
   2.4500000000000022E-002     4.1142841201757777E-002
   2.5000000000000022E-002     4.1847702155380001E-002
   2.5500000000000023E-002     4.2558193283413752E-002
   2.6000000000000023E-002     4.3274174344438920E-002
   2.6500000000000024E-002     4.3995511549599416E-002
   2.7000000000000024E-002     4.4722049392003228E-002
   2.7500000000000024E-002     4.5453635690110426E-002
   2.8000000000000025E-002     4.6190111242263444E-002
   2.8500000000000025E-002     4.6931312473133327E-002
   2.9000000000000026E-002     4.7677069491330680E-002
   2.9500000000000026E-002     4.8427195688259934E-002
   3.0000000000000027E-002     4.9181513502723449E-002
   3.0500000000000027E-002     4.9939825952298442E-002
   3.1000000000000028E-002     5.0701939005714465E-002
   3.1500000000000028E-002     5.1467653186455541E-002
   3.2000000000000028E-002     5.2236755526133209E-002