 -0.23999999999999999          0.0000000000000000     
 -0.23949999999999999          8.3190183218516000E-012
 -0.23899999999999999          4.0011784870788432E-011
 -0.23849999999999999          1.0513137076374365E-010
 -0.23799999999999999          2.0565247318096621E-010
 -0.23749999999999999          3.3382085017464239E-010
 -0.23699999999999999          4.7227429406795860E-010
 -0.23649999999999999          5.9599213399346887E-010
 -0.23599999999999999          6.7582599078223560E-010
 -0.23549999999999999          6.8309058779464075E-010
 -0.23499999999999999          5.9449567534181588E-010
 -0.23449999999999999          3.9661326270241311E-010
 -0.23399999999999999          8.9120945756741396E-011
 -0.23349999999999999         -3.1376251496984358E-010
 -0.23299999999999998         -7.8395410420725983E-010
 -0.23249999999999998         -1.2822498638816112E-009
 -0.23199999999999998         -1.7627435550007423E-009
 -0.23149999999999998         -2.1782341316439894E-009
 -0.23099999999999998         -2.4857620726633907E-009
 -0.23049999999999998         -2.6513852190286973E-009
 -0.22999999999999998         -2.6534510330040570E-009
 -0.22949999999999998         -2.4839078942014661E-009
 -0.22899999999999998         -2.1475801776864992E-009
 -0.22849999999999998         -1.6597338579054693E-009
 -0.22799999999999998         -1.0426070849060585E-009
 -0.22749999999999998         -3.2179028956620398E-010
 -0.22699999999999998          4.7664217686096736E-010
 -0.22649999999999998          1.3275218061607586E-009
 -0.22599999999999998          2.2061233339037250E-009
 -0.22549999999999998          3.0859528623655678E-009
 -0.22499999999999998          3.9353560462525818E-009
 -0.22449999999999998          4.7139041018163837E-009
 -0.22399999999999998          5.3697108172122917E-009
 -0.22349999999999998          5.8387707568024181E-009
 -0.22299999999999998          6.0470943279896956E-009
 -0.22249999999999998          5.9158819871098727E-009
 -0.22199999999999998          5.3693143182857647E-009
 -0.22150000000000000          4.3439131676540116E-009
 -0.22100000000000000          2.7979122861818931E-009
 -0.22050000000000000          7.1888410025224290E-010
 -0.22000000000000000         -1.8719956773095561E-009
 -0.21950000000000000         -4.9201860732921431E-009
 -0.21900000000000000         -8.3429239030725983E-009
 -0.21850000000000000         -1.2038715332195745E-008
 -0.21800000000000000         -1.5899777917629267E-008
 -0.21750000000000000         -1.9825432304909599E-008
 -0.21700000000000000         -2.3734108225325555E-008
 -0.21650000000000000         -2.7571791085506735E-008
 -0.21600000000000000         -3.1315413496483083E-008
 -0.21550000000000000         -3.4970594699105127E-008
 -0.21500000000000000         -3.8564290881090845E-008
 -0.21450000000000000         -4.2133936174147894E-008
 -0.21400000000000000         -4.5715422445519900E-008
 -0.21350000000000000         -4.9332594498133808E-008
 -0.21299999999999999         -5.2990581786499165E-008
 -0.21249999999999999         -5.6674652946877357E-008
 -0.21199999999999999         -6.0354982266845131E-008
 -0.21149999999999999         -6.3996422503337386E-008
 -0.21099999999999999         -6.7571291706997397E-008
 -0.21049999999999999         -7.1072322140760338E-008
 -0.20999999999999999         -7.4522553723011380E-008
 -0.20949999999999999         -7.7979695961008410E-008
 -0.20899999999999999         -8.1533392471388379E-008
 -0.20849999999999999         -8.5295328303641429E-008
 -0.20799999999999999         -8.9383670835933066E-008
 -0.20749999999999999         -9.3904656236855177E-008
 -0.20699999999999999         -9.8935129296463037E-008
 -0.20649999999999999         -1.0450978311812667E-007
 -0.20599999999999999         -1.1061616239093368E-007
 -0.20549999999999999         -1.1719916485171416E-007
 -0.20499999999999999         -1.2417484606244405E-007
 -0.20449999999999999         -1.3145135728879843E-007
 -0.20399999999999999         -1.3895328661112701E-007
 -0.20349999999999999         -1.4664500934939755E-007
 -0.20299999999999999         -1.5454821332068762E-007
 -0.20249999999999999         -1.6274983485785118E-007
 -0.20199999999999999         -1.7139866441683813E-007
 -0.20149999999999998         -1.8069064052517838E-007
 -0.20099999999999998         -1.9084524106518489E-007
 -0.20049999999999998         -2.0207723560721637E-007
 -0.19999999999999998         -2.1456917145307184E-007
 -0.19949999999999998         -2.2844992387289604E-007
 -0.19899999999999998         -2.4378301194480585E-007
 -0.19849999999999998         -2.6056772039613714E-007
 -0.19799999999999998         -2.7875207902179326E-007
 -0.19749999999999998         -2.9825565836168370E-007
 -0.19699999999999998         -3.1899767548762715E-007
 -0.19649999999999998         -3.4092454469948312E-007
 -0.19600000000000001         -3.6403166044645105E-007
 -0.19550000000000001         -3.8837539532001991E-007
 -0.19500000000000001         -4.1407323551502503E-007
 -0.19450000000000001         -4.4129234817989730E-007
 -0.19400000000000001         -4.7022911570084545E-007
 -0.19350000000000001         -5.0108430671954590E-007
 -0.19300000000000000         -5.3403956914940471E-007
 -0.19250000000000000         -5.6924077462415357E-007
 -0.19200000000000000         -6.0679078361930261E-007
 -0.19150000000000000         -6.4675346602412293E-007
 -0.19100000000000000         -6.8916973196115327E-007
 -0.19050000000000000         -7.3407968150137519E-007
 -0.19000000000000000         -7.8154765296003361E-007
 -0.18950000000000000         -8.3168440934770247E-007
 -0.18900000000000000         -8.8466139302727870E-007
 -0.18850000000000000         -9.4071493894596759E-007
 -0.18800000000000000         -1.0001382672407223E-006
 -0.18750000000000000         -1.0632642281074519E-006
 -0.18700000000000000         -1.1304412123255410E-006
 -0.18650000000000000         -1.2020088088424313E-006
 -0.18600000000000000         -1.2782781923573018E-006
 -0.18550000000000000         -1.3595203472461072E-006
 -0.18500000000000000         -1.4459663964345392E-006
 -0.18450000000000000         -1.5378183159591055E-006
 -0.18400000000000000         -1.6352686760642692E-006
 -0.18350000000000000         -1.7385254837425182E-006
 -0.18300000000000000         -1.8478342238123165E-006
 -0.18250000000000000         -1.9634952889612848E-006
 -0.18200000000000000         -2.0858721954154174E-006
 -0.18149999999999999         -2.2153905550374953E-006
 -0.18099999999999999         -2.3525267230205003E-006
 -0.18049999999999999         -2.4977899610547145E-006
 -0.17999999999999999         -2.6517037578604401E-006
 -0.17949999999999999         -2.8147902509419486E-006
 -0.17899999999999999         -2.9875624953197659E-006
 -0.17849999999999999         -3.1705230876230952E-006
 -0.17799999999999999         -3.3641754473409040E-006
 -0.17749999999999999         -3.5690468998277986E-006
 -0.17699999999999999         -3.7857085916672116E-006
 -0.17649999999999999         -4.0147928396485715E-006
 -0.17599999999999999         -4.2570084280883605E-006
 -0.17549999999999999         -4.5131449588735754E-006
 -0.17499999999999999         -4.7840692743073499E-006
 -0.17449999999999999         -5.0707055364464738E-006
 -0.17399999999999999         -5.3740129468487277E-006
 -0.17349999999999999         -5.6949688000988276E-006
 -0.17299999999999999         -6.0345510389768080E-006
 -0.17249999999999999         -6.3937319199847670E-006
 -0.17199999999999999         -6.7734833755833626E-006
 -0.17149999999999999         -7.1747991368320537E-006
 -0.17099999999999999         -7.5987173437265939E-006
 -0.17049999999999998         -8.0463482510645898E-006
 -0.16999999999999998         -8.5189054165994275E-006
 -0.16949999999999998         -9.0177181681220802E-006
 -0.16899999999999998         -9.5442415251634001E-006
 -0.16849999999999998         -1.0100049697633810E-005
 -0.16799999999999998         -1.0686816729312035E-005
 -0.16749999999999998         -1.1306295735051045E-005
 -0.16699999999999998         -1.1960290232824553E-005
 -0.16649999999999998         -1.2650632175414287E-005
 -0.16599999999999998         -1.3379172704506598E-005
 -0.16549999999999998         -1.4147801723220227E-005
 -0.16499999999999998         -1.4958460081094517E-005
 -0.16449999999999998         -1.5813171734233340E-005
 -0.16399999999999998         -1.6714080505375342E-005
 -0.16349999999999998         -1.7663498476097808E-005
 -0.16299999999999998         -1.8663927422829604E-005
 -0.16249999999999998         -1.9718064329061541E-005
 -0.16199999999999998         -2.0828806723804720E-005
 -0.16149999999999998         -2.1999225362111294E-005
 -0.16099999999999998         -2.3232527117343295E-005
 -0.16049999999999998         -2.4532023386346436E-005
 -0.15999999999999998         -2.5901117424019985E-005
 -0.15949999999999998         -2.7343265889754325E-005
 -0.15899999999999997         -2.8861998310904585E-005
 -0.15849999999999997         -3.0460937460190479E-005
 -0.15799999999999997         -3.2143841015421672E-005
 -0.15749999999999997         -3.3914641712057367E-005
 -0.15699999999999997         -3.5777499639306436E-005
 -0.15649999999999997         -3.7736866799159616E-005
 -0.15599999999999997         -3.9797514228127309E-005
 -0.15549999999999997         -4.1964519869266457E-005
 -0.15499999999999997         -4.4243255323014213E-005
 -0.15449999999999997         -4.6639355479963958E-005
 -0.15399999999999997         -4.9158685124628220E-005
 -0.15349999999999997         -5.1807321216464547E-005
 -0.15299999999999997         -5.4591519332464883E-005
 -0.15249999999999997         -5.7517696048843452E-005
 -0.15200000000000000         -6.0592444476661713E-005
 -0.15150000000000000         -6.3822598849402480E-005
 -0.15100000000000000         -6.7215249820869611E-005
 -0.15049999999999999         -7.0777811041480019E-005
 -0.14999999999999999         -7.4518121636928849E-005
 -0.14949999999999999         -7.8444518530790594E-005
 -0.14899999999999999         -8.2565765864555524E-005
 -0.14849999999999999         -8.6891096496824602E-005
 -0.14799999999999999         -9.1430210482062779E-005
 -0.14749999999999999         -9.6193202853566036E-005
 -0.14699999999999999         -1.0119054939552462E-004
 -0.14649999999999999         -1.0643309730794801E-004
 -0.14599999999999999         -1.1193205265200089E-004
 -0.14549999999999999         -1.1769895393395568E-004
 -0.14499999999999999         -1.2374568611990005E-004
 -0.14449999999999999         -1.3008451259315378E-004
 -0.14399999999999999         -1.3672822190372063E-004
 -0.14349999999999999         -1.4369030254062916E-004
 -0.14299999999999999         -1.5098481763808861E-004
 -0.14249999999999999         -1.5862639721014494E-004
 -0.14199999999999999         -1.6663051832960219E-004
 -0.14149999999999999         -1.7501341962788855E-004
 -0.14099999999999999         -1.8379196600400372E-004
 -0.14049999999999999         -1.9298370562062414E-004
 -0.13999999999999999         -2.0260681304249550E-004
 -0.13949999999999999         -2.1268003145752357E-004
 -0.13899999999999998         -2.2322277201679058E-004
 -0.13849999999999998         -2.3425494494238235E-004
 -0.13799999999999998         -2.4579714244822814E-004
 -0.13749999999999998         -2.5787075689168620E-004
 -0.13699999999999998         -2.7049804174139602E-004
 -0.13649999999999998         -2.8370221317319436E-004
 -0.13599999999999998         -2.9750748407785237E-004
 -0.13550000000000001         -3.1193909901803955E-004
 -0.13500000000000001         -3.2702334799628811E-004
 -0.13450000000000001         -3.4278762367145042E-004
 -0.13400000000000001         -3.5926041884553836E-004
 -0.13350000000000001         -3.7647120450024114E-004
 -0.13300000000000001         -3.9445025686628732E-004
 -0.13250000000000001         -4.1322893405976743E-004
 -0.13200000000000001         -4.3283951196201160E-004
 -0.13150000000000001         -4.5331526480007535E-004
 -0.13100000000000001         -4.7469047042238512E-004
 -0.13050000000000000         -4.9700073637619769E-004
 -0.13000000000000000         -5.2028325393836119E-004
 -0.12950000000000000         -5.4457666248017907E-004
 -0.12900000000000000         -5.6992087370919670E-004
 -0.12850000000000000         -5.9635728171366460E-004
 -0.12800000000000000         -6.2392913252209904E-004
 -0.12750000000000000         -6.5268071659668422E-004
 -0.12700000000000000         -6.8265763294860882E-004
 -0.12650000000000000         -7.1390725536308176E-004
 -0.12600000000000000         -7.4647858176459859E-004
 -0.12550000000000000         -7.8042171907315313E-004
 -0.12499999999999999         -8.1578827874258329E-004
 -0.12449999999999999         -8.5263204680165964E-004
 -0.12399999999999999         -8.9100849036546741E-004
 -0.12349999999999998         -9.3097476743370252E-004
 -0.12299999999999998         -9.7258998668769514E-004
 -0.12249999999999998         -1.0159152348144971E-003
 -0.12199999999999998         -1.0610135166658713E-003
 -0.12149999999999998         -1.1079497149785891E-003
 -0.12099999999999998         -1.1567911325689254E-003
 -0.12049999999999998         -1.2076068436372113E-003
 -0.12000000000000000         -1.2604676740008520E-003
 -0.11950000000000000         -1.3154467132081554E-003
 -0.11899999999999999         -1.3726191297925147E-003
 -0.11849999999999999         -1.4320628583132963E-003
 -0.11799999999999999         -1.4938579356978455E-003
 -0.11749999999999999         -1.5580867605876681E-003
 -0.11699999999999999         -1.6248342932432902E-003
 -0.11649999999999999         -1.6941877835546580E-003
 -0.11599999999999999         -1.7662370059778644E-003
 -0.11549999999999999         -1.8410740443403533E-003
 -0.11499999999999999         -1.9187939989147949E-003
 -0.11449999999999999         -1.9994941436222440E-003
 -0.11399999999999999         -2.0832736987209718E-003
 -0.11349999999999999         -2.1702365787280762E-003
 -0.11299999999999999         -2.2604886747912799E-003
 -0.11249999999999999         -2.3541375338800470E-003
 -0.11199999999999999         -2.4512936577279791E-003
 -0.11149999999999999         -2.5520707778932976E-003
 -0.11099999999999999         -2.6565867550284354E-003
 -0.11049999999999999         -2.7649620640909194E-003
 -0.10999999999999999         -2.8773195743592639E-003
 -0.10949999999999999         -2.9937862214660504E-003
 -0.10899999999999999         -3.1144920873338042E-003
 -0.10849999999999999         -3.2395695029162497E-003
 -0.10799999999999998         -3.3691549033879409E-003
 -0.10749999999999998         -3.5033868792677912E-003
 -0.10699999999999998         -3.6424087344531855E-003
 -0.10649999999999998         -3.7863665101030043E-003
 -0.10599999999999998         -3.9354093387222551E-003
 -0.10549999999999998         -4.0896874369488537E-003
 -0.10499999999999998         -4.2493531305756891E-003
 -0.10449999999999998         -4.4145639725057945E-003
 -0.10399999999999998         -4.5854823533367332E-003
 -0.10349999999999998         -4.7622758375298543E-003
 -0.10299999999999998         -4.9451164905551532E-003
 -0.10249999999999998         -5.1341790438740043E-003
 -0.10199999999999998         -5.3296409263218873E-003
 -0.10149999999999998         -5.5316827083986258E-003
 -0.10099999999999998         -5.7404890431145116E-003
 -0.10049999999999998         -5.9562441396791913E-003
  -9.9999999999999978E-002    -6.1791346143493190E-003
  -9.9499999999999977E-002    -6.4093535862399416E-003
  -9.8999999999999977E-002    -6.6470980133678734E-003
  -9.8499999999999976E-002    -6.8925676808911235E-003
  -9.7999999999999976E-002    -7.1459635018134883E-003
  -9.7499999999999976E-002    -7.4074953490686924E-003
  -9.6999999999999975E-002    -7.6773780753046153E-003
  -9.6499999999999975E-002    -7.9558276443696761E-003
  -9.5999999999999974E-002    -8.2430674500287709E-003
  -9.5500000000000002E-002    -8.5393233115297687E-003
  -9.5000000000000001E-002    -8.8448185489249410E-003
  -9.4500000000000001E-002    -9.1597780906182459E-003
  -9.4000000000000000E-002    -9.4844323930171198E-003
  -9.3500000000000000E-002    -9.8190136020131491E-003
  -9.2999999999999999E-002    -1.0163752454920495E-002
  -9.2499999999999999E-002    -1.0518888056690368E-002
  -9.1999999999999998E-002    -1.0884661458927164E-002
  -9.1499999999999998E-002    -1.1261310284988970E-002
  -9.0999999999999998E-002    -1.1649078430603924E-002
  -9.0499999999999997E-002    -1.2048215589829745E-002
  -8.9999999999999997E-002    -1.2458985972690514E-002
  -8.9499999999999996E-002    -1.2881659064909932E-002
  -8.8999999999999996E-002    -1.3316499998637002E-002
  -8.8499999999999995E-002    -1.3763767165316670E-002
  -8.7999999999999995E-002    -1.4223722304210599E-002
  -8.7499999999999994E-002    -1.4696634939347978E-002
  -8.6999999999999994E-002    -1.5182767773243424E-002
  -8.6499999999999994E-002    -1.5682381647363634E-002
  -8.5999999999999993E-002    -1.6195737849284512E-002
  -8.5499999999999993E-002    -1.6723099061748320E-002
  -8.4999999999999992E-002    -1.7264723790137285E-002
  -8.4499999999999992E-002    -1.7820871073820001E-002
  -8.3999999999999991E-002    -1.8391821138777187E-002
  -8.3499999999999991E-002    -1.8977855232260768E-002
  -8.2999999999999990E-002    -1.9579241127531413E-002
  -8.2499999999999990E-002    -2.0196255897370952E-002
  -8.1999999999999990E-002    -2.0829179399294580E-002
  -8.1499999999999989E-002    -2.1478297005263103E-002
  -8.0999999999999989E-002    -2.2143884021068261E-002
  -8.0499999999999988E-002    -2.2826191912721054E-002
  -7.9999999999999988E-002    -2.3525486745763387E-002
  -7.9499999999999987E-002    -2.4242038397087114E-002
  -7.8999999999999987E-002    -2.4976103301466657E-002
  -7.8499999999999986E-002    -2.5727932834438486E-002
  -7.7999999999999986E-002    -2.6497765215123141E-002
  -7.7499999999999986E-002    -2.7285842956387960E-002
  -7.6999999999999985E-002    -2.8092422017975710E-002
  -7.6499999999999985E-002    -2.8917744272071166E-002
  -7.5999999999999984E-002    -2.9762065627380048E-002
  -7.5499999999999984E-002    -3.0625635595358941E-002
  -7.4999999999999983E-002    -3.1508676976590974E-002
  -7.4499999999999983E-002    -3.2411438618369467E-002
  -7.3999999999999982E-002    -3.3334137154849619E-002
  -7.3499999999999982E-002    -3.4276976761934669E-002
  -7.2999999999999982E-002    -3.5240181371475679E-002
  -7.2499999999999981E-002    -3.6223956390934092E-002
  -7.1999999999999981E-002    -3.7228471803274057E-002
  -7.1499999999999980E-002    -3.8253891921454675E-002
  -7.0999999999999980E-002    -3.9300381095721662E-002
  -7.0499999999999979E-002    -4.0368099068667368E-002
  -6.9999999999999979E-002    -4.1457207221491960E-002
  -6.9499999999999978E-002    -4.2567814889555577E-002
  -6.8999999999999978E-002    -4.3700039776202640E-002
  -6.8499999999999978E-002    -4.4854030968869529E-002
  -6.7999999999999977E-002    -4.6029929599657446E-002
  -6.7499999999999977E-002    -4.7227856185305631E-002
  -6.6999999999999976E-002    -4.8447912224528447E-002
  -6.6499999999999976E-002    -4.9690167797054610E-002
  -6.5999999999999975E-002    -5.0954651250193980E-002
  -6.5499999999999975E-002    -5.2241410545542086E-002
  -6.4999999999999974E-002    -5.3550482150954481E-002
  -6.4499999999999974E-002    -5.4881786398202320E-002
  -6.4000000000000001E-002    -5.6235278669274941E-002
  -6.3500000000000001E-002    -5.7610921308480306E-002
  -6.3000000000000000E-002    -5.9008634654113434E-002
  -6.2500000000000000E-002    -6.0428374549782060E-002
  -6.2000000000000000E-002    -6.1870084669563452E-002
  -6.1499999999999999E-002    -6.3333680794727398E-002
  -6.0999999999999999E-002    -6.4819102496202180E-002
  -6.0499999999999998E-002    -6.6326236494064245E-002
  -5.9999999999999998E-002    -6.7854874601222526E-002
  -5.9499999999999997E-002    -6.9404839583865813E-002
  -5.8999999999999997E-002    -7.0975889514903828E-002
  -5.8499999999999996E-002    -7.2567726163817126E-002
  -5.7999999999999996E-002    -7.4180050651840052E-002
  -5.7499999999999996E-002    -7.5812531302683256E-002
  -5.6999999999999995E-002    -7.7464827036023642E-002
  -5.6499999999999995E-002    -7.9136615178309666E-002
  -5.5999999999999994E-002    -8.0827585410001068E-002
  -5.5499999999999994E-002    -8.2537329576627239E-002
  -5.4999999999999993E-002    -8.4265394806415622E-002
  -5.4499999999999993E-002    -8.6011358261652460E-002
  -5.3999999999999992E-002    -8.7774721661286026E-002
  -5.3499999999999992E-002    -8.9554938754422136E-002
  -5.2999999999999992E-002    -9.1351497960426853E-002
  -5.2499999999999991E-002    -9.3163786690062700E-002
  -5.1999999999999991E-002    -9.4991054789911628E-002
  -5.1499999999999990E-002    -9.6832606045957836E-002
  -5.0999999999999990E-002    -9.8687816878406553E-002
  -5.0499999999999989E-002   -0.10055595447002910     
  -4.9999999999999989E-002   -0.10243622679712766     
  -4.9499999999999988E-002   -0.10432783276679636     
  -4.8999999999999988E-002   -0.10622990223112388     
  -4.8499999999999988E-002   -0.10814160541675888     
  -4.7999999999999987E-002   -0.11006207452633227     
  -4.7499999999999987E-002   -0.11199032915187052     
  -4.6999999999999986E-002   -0.11392540131951651     
  -4.6499999999999986E-002   -0.11586633238832622     
  -4.5999999999999985E-002   -0.11781209978626989     
  -4.5499999999999985E-002   -0.11976154618392854     
  -4.4999999999999984E-002   -0.12171340792943425     
  -4.4499999999999984E-002   -0.12366639639074684     
  -4.3999999999999984E-002   -0.12561929959782886     
  -4.3499999999999983E-002   -0.12757087857075416     
  -4.2999999999999983E-002   -0.12951967011733334     
  -4.2499999999999982E-002   -0.13146423313016004     
  -4.1999999999999982E-002   -0.13340328326953793     
  -4.1499999999999981E-002   -0.13533550380435311     
  -4.0999999999999981E-002   -0.13725950258324926     
  -4.0499999999999980E-002   -0.13917376064377213     
  -3.9999999999999980E-002   -0.14107672705067903     
  -3.9499999999999980E-002   -0.14296680709331366     
  -3.8999999999999979E-002   -0.14484232815223963     
  -3.8499999999999979E-002   -0.14670153582841478     
  -3.7999999999999978E-002   -0.14854260950492465     
  -3.7499999999999978E-002   -0.15036380387604659     
  -3.6999999999999977E-002   -0.15216328110612398     
  -3.6499999999999977E-002   -0.15393903346535531     
  -3.5999999999999976E-002   -0.15568907990907360     
  -3.5499999999999976E-002   -0.15741149896208256     
  -3.4999999999999976E-002   -0.15910440975593410     
  -3.4499999999999975E-002   -0.16076572061039024     
  -3.3999999999999975E-002   -0.16239341853323463     
  -3.3499999999999974E-002   -0.16398565434938928     
  -3.2999999999999974E-002   -0.16554042043223033     
  -3.2499999999999973E-002   -0.16705542087627340     
  -3.1999999999999973E-002   -0.16852823375032122     
  -3.1500000000000000E-002   -0.16995656980835572     
  -3.1000000000000000E-002   -0.17133809892658808     
  -3.0499999999999999E-002   -0.17267049592290712     
  -2.9999999999999999E-002   -0.17395134570322129     
  -2.9499999999999998E-002   -0.17517825737789355     
  -2.8999999999999998E-002   -0.17634903723496276     
  -2.8499999999999998E-002   -0.17746135788197848     
  -2.7999999999999997E-002   -0.17851278153146466     
  -2.7499999999999997E-002   -0.17950093942887091     
  -2.6999999999999996E-002   -0.18042327396016045     
  -2.6499999999999996E-002   -0.18127712494190817     
  -2.5999999999999995E-002   -0.18205986284255599     
  -2.5499999999999995E-002   -0.18276884952715988     
  -2.4999999999999994E-002   -0.18340161201043859     
  -2.4499999999999994E-002   -0.18395580768369291     
  -2.3999999999999994E-002   -0.18442881674998746     
  -2.3499999999999993E-002   -0.18481783442223376     
  -2.2999999999999993E-002   -0.18512029873508234     
  -2.2499999999999992E-002   -0.18533354784268802     
  -2.1999999999999992E-002   -0.18545471110729023     
  -2.1499999999999991E-002   -0.18548094410498173     
  -2.0999999999999991E-002   -0.18540972665941363     
  -2.0499999999999990E-002   -0.18523844199686923     
  -1.9999999999999990E-002   -0.18496435795716443     
  -1.9499999999999990E-002   -0.18458499473399353     
  -1.8999999999999989E-002   -0.18409781527043162     
  -1.8499999999999989E-002   -0.18350025070686393     
  -1.7999999999999988E-002   -0.18278975991518592     
  -1.7499999999999988E-002   -0.18196387264282077     
  -1.6999999999999987E-002   -0.18102000518959860     
  -1.6499999999999987E-002   -0.17995569032860464     
  -1.5999999999999986E-002   -0.17876825870165103     
  -1.5499999999999986E-002   -0.17745493592662542     
  -1.4999999999999986E-002   -0.17601311197382025     
  -1.4499999999999985E-002   -0.17444030724871484     
  -1.3999999999999985E-002   -0.17273422333395755     
  -1.3499999999999984E-002   -0.17089273560200896     
  -1.2999999999999984E-002   -0.16891373392406889     
  -1.2499999999999983E-002   -0.16679478840154077     
  -1.1999999999999983E-002   -0.16453392363434588     
  -1.1499999999999982E-002   -0.16212915319816598     
  -1.0999999999999982E-002   -0.15957832498465765     
  -1.0499999999999982E-002   -0.15687943392323314     
  -9.9999999999999811E-003   -0.15403046163345291     
  -9.4999999999999807E-003   -0.15102960948058688     
  -8.9999999999999802E-003   -0.14787480984899753     
  -8.4999999999999798E-003   -0.14456405877038059     
  -7.9999999999999793E-003   -0.14109596420793002     
  -7.4999999999999789E-003   -0.13746868418436120     
  -6.9999999999999785E-003   -0.13368057515659554     
  -6.4999999999999780E-003   -0.12973039626543673     
  -5.9999999999999776E-003   -0.12561685375843856     
  -5.4999999999999771E-003   -0.12133884306602272     
  -4.9999999999999767E-003   -0.11689504155790306     
  -4.4999999999999762E-003   -0.11228420228001079     
  -3.9999999999999758E-003   -0.10750558032775508     
  -3.4999999999999754E-003   -0.10255858744647799     
  -2.9999999999999749E-003    -9.7442544744248724E-002
  -2.4999999999999745E-003    -9.2157121373396655E-002
  -1.9999999999999740E-003    -8.6701819246945033E-002
  -1.4999999999999736E-003    -8.1076352438633703E-002
  -9.9999999999997313E-004    -7.5280663682933791E-002
  -4.9999999999997269E-004    -6.9314370246803536E-002
   0.0000000000000000         -6.3176976699436171E-002
   5.0000000000000044E-004    -5.6868520540096557E-002
   1.0000000000000009E-003    -5.0389189004759360E-002
   1.5000000000000013E-003    -4.3739179936407968E-002
   2.0000000000000018E-003    -3.6918696750972868E-002
   2.5000000000000022E-003    -2.9928270463850160E-002
   3.0000000000000027E-003    -2.2769403556522572E-002
   3.5000000000000031E-003    -1.5443100775966723E-002
   4.0000000000000036E-003    -7.9511522206839325E-003
   4.5000000000000040E-003    -2.9579034721927133E-004
   5.0000000000000044E-003     7.5215937837264657E-003
   5.5000000000000049E-003     1.5499646510342358E-002
   6.0000000000000053E-003     2.3636622205146118E-002
   6.5000000000000058E-003     3.1930845161873556E-002
   7.0000000000000062E-003     4.0380635699557799E-002
   7.5000000000000067E-003     4.8984013344237742E-002
   8.0000000000000071E-003     5.7739239793541147E-002
   8.5000000000000075E-003     6.6644211836822814E-002
   9.0000000000000080E-003     7.5696152843665737E-002
   9.5000000000000084E-003     8.4891978687783184E-002
   1.0000000000000009E-002     9.4228218469658939E-002
   1.0500000000000009E-002    0.10370107176430990     
   1.1000000000000010E-002    0.11330669712639865     
   1.1500000000000010E-002    0.12304125084286960     
   1.2000000000000011E-002    0.13290103700102970     
   1.2500000000000011E-002    0.14288169250297905     
   1.3000000000000012E-002    0.15297910664241710     
   1.3500000000000012E-002    0.16318948499463348     
   1.4000000000000012E-002    0.17350874422264723     
   1.4500000000000013E-002    0.18393298095195831     
   1.5000000000000013E-002    0.19445779827063434     
   1.5500000000000014E-002    0.20507843184822866     
   1.6000000000000014E-002    0.21579006469796735     
   1.6500000000000015E-002    0.22658740608257616     
   1.7000000000000015E-002    0.23746479085418515     
   1.7500000000000016E-002    0.24841611308161693     
   1.8000000000000016E-002    0.25943555424634301     
   1.8500000000000016E-002    0.27051695195504588     
   1.9000000000000017E-002    0.28165364369603219     
   1.9500000000000017E-002    0.29283919583602103     
   2.0000000000000018E-002    0.30406714362115450     
   2.0500000000000018E-002    0.31533084299867209     
   2.1000000000000019E-002    0.32662376391005710     
   2.1500000000000019E-002    0.33793965121672298     
   2.2000000000000020E-002    0.34927206173934766     
   2.2500000000000020E-002    0.36061482732482597     
   2.3000000000000020E-002    0.37196104873991453     
   2.3500000000000021E-002    0.38330381971170624     
   2.4000000000000021E-002    0.39463597323390587     
   2.4500000000000022E-002    0.40594964445725046     
   2.5000000000000022E-002    0.41723712482633679     
   2.5500000000000023E-002    0.42849025779778260     
   2.6000000000000023E-002    0.43970070416706142     
   2.6500000000000024E-002    0.45086015498496490     
   2.7000000000000024E-002    0.46196022491694211     
   2.7500000000000024E-002    0.47299266426947062     
   2.8000000000000025E-002    0.48394953681654251     
   2.8500000000000025E-002    0.49482323052796562     
   2.9000000000000026E-002    0.50560597518570738     
   2.9500000000000026E-002    0.51628984948533918     
   3.0000000000000027E-002    0.52686696777956743     
   3.0500000000000027E-002    0.53732903395858767     
   3.1000000000000028E-002    0.54766750135669651     
   3.1500000000000028E-002    0.55787378725822134     
   3.2000000000000028E-002    0.56793914898849507     