 -0.23999999999999999          0.0000000000000000     
 -0.23949999999999999          0.0000000000000000     
 -0.23899999999999999          0.0000000000000000     
 -0.23849999999999999          0.0000000000000000     
 -0.23799999999999999          0.0000000000000000     
 -0.23749999999999999          0.0000000000000000     
 -0.23699999999999999          0.0000000000000000     
 -0.23649999999999999          0.0000000000000000     
 -0.23599999999999999          0.0000000000000000     
 -0.23549999999999999         -9.8233886446918133E-028
 -0.23499999999999999         -1.6020153366861287E-026
 -0.23449999999999999         -1.3453436023246098E-025
 -0.23399999999999999         -7.7125638943726025E-025
 -0.23349999999999999         -3.3720269601342865E-024
 -0.23299999999999998         -1.1885882432657147E-023
 -0.23249999999999998         -3.4726774074870733E-023
 -0.23199999999999998         -8.4641266276908144E-023
 -0.23149999999999998         -1.6822395694965659E-022
 -0.23099999999999998         -2.4624678120595631E-022
 -0.23049999999999998         -1.3077758805948004E-022
 -0.22999999999999998          7.2986900320437070E-022
 -0.22949999999999998          3.6292278764919162E-021
 -0.22899999999999998          1.1161134272687364E-020
 -0.22849999999999998          2.7876610259670715E-020
 -0.22799999999999998          6.0764519777083488E-020
 -0.22749999999999998          1.1898664824269696E-019
 -0.22699999999999998          2.1194414565624638E-019
 -0.22649999999999998          3.4445245687840626E-019
 -0.22599999999999998          5.0777226364118902E-019
 -0.22549999999999998          6.6577668533588844E-019
 -0.22499999999999998          7.3695557704607647E-019
 -0.22449999999999998          5.7547797905563174E-019
 -0.22399999999999998         -4.1859025765022743E-020
 -0.22349999999999998         -1.4117489446490992E-018
 -0.22299999999999998         -3.8689710519136638E-018
 -0.22249999999999998         -7.7034238568654897E-018
 -0.22199999999999998         -1.3016958315123384E-017
 -0.22150000000000000         -1.9517599522790830E-017
 -0.22100000000000000         -2.6267194797876524E-017
 -0.22050000000000000         -3.1426173040220723E-017
 -0.22000000000000000         -3.2070957018983358E-017
 -0.21950000000000000         -2.4191722540364622E-017
 -0.21900000000000000         -2.9992566054680063E-018
 -0.21850000000000000          3.6334103621016303E-017
 -0.21800000000000000          9.7413414528229936E-017
 -0.21750000000000000          1.8084047544760905E-016
 -0.21700000000000000          2.8205283936171943E-016
 -0.21650000000000000          3.8909998973299105E-016
 -0.21600000000000000          4.8086896860662044E-016
 -0.21550000000000000          5.2644939968515044E-016
 -0.21500000000000000          4.8641894023526743E-016
 -0.21450000000000000          3.1679447802850579E-016
 -0.21400000000000000         -2.3841866500285319E-017
 -0.21350000000000000         -5.6401631674750353E-016
 -0.21299999999999999         -1.3064612885044279E-015
 -0.21249999999999999         -2.2141930402754450E-015
 -0.21199999999999999         -3.1979652690620856E-015
 -0.21149999999999999         -4.1083655981334274E-015
 -0.21099999999999999         -4.7362385111645710E-015
 -0.21049999999999999         -4.8250732090902339E-015
 -0.20999999999999999         -4.0979043177183632E-015
 -0.20949999999999999         -2.2998524234400883E-015
 -0.20899999999999999          7.4554114187693485E-016
 -0.20849999999999999          5.0712760407039051E-015
 -0.20799999999999999          1.0501495845333976E-014
 -0.20749999999999999          1.6597929085836183E-014
 -0.20699999999999999          2.2631776755931664E-014
 -0.20649999999999999          2.7595674429912141E-014
 -0.20599999999999999          3.0267814350812966E-014
 -0.20549999999999999          2.9335268345335661E-014
 -0.20499999999999999          2.3576254067503993E-014
 -0.20449999999999999          1.2089592835943380E-014
 -0.20399999999999999         -5.4511643883168280E-015
 -0.20349999999999999         -2.8551986485823508E-014
 -0.20299999999999999         -5.5705843448250122E-014
 -0.20249999999999999         -8.4298487515541837E-014
 -0.20199999999999999         -1.1065957584944705E-013
 -0.20149999999999998         -1.3029215293475227E-013
 -0.20099999999999998         -1.3829843032494432E-013
 -0.20049999999999998         -1.2998953855588441E-013
 -0.19999999999999998         -1.0163674372606901E-013
 -0.19949999999999998         -5.1291365225176674E-014
 -0.19899999999999998          2.0439321757456316E-014
 -0.19849999999999998          1.0978439430328960E-013
 -0.19799999999999998          2.0950667416197444E-013
 -0.19749999999999998          3.0902927786180534E-013
 -0.19699999999999998          3.9508202482121946E-013
 -0.19649999999999998          4.5290114432210149E-013
 -0.19600000000000001          4.6794144080430922E-013
 -0.19550000000000001          4.2797349323296652E-013
 -0.19500000000000001          3.2535419128808252E-013
 -0.19450000000000001          1.5917097555360332E-013
 -0.19400000000000001         -6.3067105249108024E-014
 -0.19350000000000001         -3.2456844286862796E-013
 -0.19300000000000000         -5.9951934909541205E-013
 -0.19250000000000000         -8.5470888179506321E-013
 -0.19200000000000000         -1.0525831508484407E-012
 -0.19150000000000000         -1.1556133654166967E-012
 -0.19100000000000000         -1.1316483774365116E-012
 -0.19050000000000000         -9.5968838344923091E-013
 -0.19000000000000000         -6.3533423313999471E-013
 -0.18950000000000000         -1.7506100193596941E-013
 -0.18900000000000000          3.8162198011046367E-013
 -0.18850000000000000          9.7286209036623328E-013
 -0.18800000000000000          1.5186474040113085E-012
 -0.18750000000000000          1.9286098325993484E-012
 -0.18700000000000000          2.1132238754023591E-012
 -0.18650000000000000          1.9975232405655685E-012
 -0.18600000000000000          1.5359711115839336E-012
 -0.18550000000000000          7.2657174330845176E-013
 -0.18500000000000000         -3.7800838847967810E-013
 -0.18450000000000000         -1.6646416233292993E-012
 -0.18400000000000000         -2.9614342662159787E-012
 -0.18350000000000000         -4.0485505573006897E-012
 -0.18300000000000000         -4.6788558270838276E-012
 -0.18250000000000000         -4.6079941078136510E-012
 -0.18200000000000000         -3.6319647376409359E-012
 -0.18149999999999999         -1.6288833346381204E-012
 -0.18099999999999999          1.3998595034883654E-012
 -0.18049999999999999          5.2948773837657725E-012
 -0.17999999999999999          9.7169468651903124E-012
 -0.17949999999999999          1.4144309855301795E-011
 -0.17899999999999999          1.7894442871924099E-011
 -0.17849999999999999          2.0173616249730131E-011
 -0.17799999999999999          2.0154933277893861E-011
 -0.17749999999999999          1.7081792577644528E-011
 -0.17699999999999999          1.0389902480034685E-011
 -0.17649999999999999         -1.6299510569375841E-013
 -0.17599999999999999         -1.4374421791751857E-011
 -0.17549999999999999         -3.1498408048502569E-011
 -0.17499999999999999         -5.0189200018202484E-011
 -0.17449999999999999         -6.8504694972215674E-011
 -0.17399999999999999         -8.3984208476550748E-011
 -0.17349999999999999         -9.3809050805138128E-011
 -0.17299999999999999         -9.5047462955744066E-011
 -0.17249999999999999         -8.4974999259301853E-011
 -0.17199999999999999         -6.1451663202483076E-011
 -0.17149999999999999         -2.3325227166415274E-011
 -0.17099999999999999          2.9178104377081127E-011
 -0.17049999999999998          9.4124104343951132E-011
 -0.16999999999999998          1.6765040744548543E-010
 -0.16949999999999998          2.4390711672594989E-010
 -0.16899999999999998          3.1519986620764939E-010
 -0.16849999999999998          3.7236463912293516E-010
 -0.16799999999999998          4.0538697398950774E-010
 -0.16749999999999998          4.0425135461319428E-010
 -0.16699999999999998          3.5998523606473043E-010
 -0.16649999999999998          2.6582805401353937E-010
 -0.16599999999999998          1.1843556690926960E-010
 -0.16549999999999998         -8.0992233753018894E-011
 -0.16499999999999998         -3.2579475228722288E-010
 -0.16449999999999998         -6.0326688089418212E-010
 -0.16399999999999998         -8.9453933149741260E-010
 -0.16349999999999998         -1.1750174166991201E-009
 -0.16299999999999998         -1.4154508676256228E-009
 -0.16249999999999998         -1.5836479905217971E-009
 -0.16199999999999998         -1.6467961438948464E-009
 -0.16149999999999998         -1.5742970260745892E-009
 -0.16099999999999998         -1.3409379162609980E-009
 -0.16049999999999998         -9.3019275615446873E-010
 -0.15999999999999998         -3.3736918814142314E-010
 -0.15949999999999998          4.2765846419712261E-010
 -0.15899999999999997          1.3384894304024897E-009
 -0.15849999999999997          2.3512398694691683E-009
 -0.15799999999999997          3.4048674990572181E-009
 -0.15749999999999997          4.4229153672858956E-009
 -0.15699999999999997          5.3167794611397312E-009
 -0.15649999999999997          5.9904246008102291E-009
 -0.15599999999999997          6.3464251631728530E-009
 -0.15549999999999997          6.2930123334581367E-009
 -0.15499999999999997          5.7517386409244864E-009
 -0.15449999999999997          4.6653241270178114E-009
 -0.15399999999999997          3.0050215649168877E-009
 -0.15349999999999997          7.7703965484232640E-010
 -0.15299999999999997         -1.9725931998948454E-009
 -0.15249999999999997         -5.1552535573762270E-009
 -0.15200000000000000         -8.6393185938504757E-009
 -0.15150000000000000         -1.2252491465858384E-008
 -0.15100000000000000         -1.5786941531814591E-008
 -0.15049999999999999         -1.9007089235856256E-008
 -0.14999999999999999         -2.1659831261899853E-008
 -0.14949999999999999         -2.3486766309588347E-008
 -0.14899999999999999         -2.4237843732066722E-008
 -0.14849999999999999         -2.3685707617460139E-008
 -0.14799999999999999         -2.1640198966110802E-008
 -0.14749999999999999         -1.7962076270805483E-008
 -0.14699999999999999         -1.2575481989074433E-008
 -0.14649999999999999         -5.4785438408089249E-009
 -0.14599999999999999          3.2483546963391063E-009
 -0.14549999999999999          1.3436926238341584E-008
 -0.14499999999999999          2.4827878419841909E-008
 -0.14449999999999999          3.7070822855866936E-008
 -0.14399999999999999          4.9726793349691434E-008
 -0.14349999999999999          6.2273436185478204E-008
 -0.14299999999999999          7.4112882941790303E-008
 -0.14249999999999999          8.4582175929881487E-008
 -0.14199999999999999          9.2966516263004451E-008
 -0.14149999999999999          9.8516146351812495E-008
 -0.14099999999999999          1.0046632326066174E-007
 -0.14049999999999999          9.8061576636609971E-008
 -0.13999999999999999          9.0585054124403541E-008
 -0.13949999999999999          7.7393060848862660E-008
 -0.13899999999999998          5.7955443111268323E-008
 -0.13849999999999998          3.1900651009664216E-008
 -0.13799999999999998         -9.3348662133507787E-010
 -0.13749999999999998         -4.0445222282414761E-008
 -0.13699999999999998         -8.6214569705589383E-008
 -0.13649999999999998         -1.3744750049227150E-007
 -0.13599999999999998         -1.9293035791179136E-007
 -0.13550000000000001         -2.5098853484450956E-007
 -0.13500000000000001         -3.0946597462389036E-007
 -0.13450000000000001         -3.6572208728102851E-007
 -0.13400000000000001         -4.1665705907689699E-007
 -0.13350000000000001         -4.5876694798607787E-007
 -0.13300000000000001         -4.8823619636095827E-007
 -0.13250000000000001         -5.0106609705835581E-007
 -0.13200000000000001         -4.9324228257319191E-007
 -0.13150000000000001         -4.6094069716673403E-007
 -0.13100000000000001         -4.0075815377349500E-007
 -0.13050000000000000         -3.0997682642919244E-007
 -0.13000000000000000         -1.8683439861888473E-007
 -0.12950000000000000         -3.0794751637586160E-008
 -0.12900000000000000          1.5719419366178045E-007
 -0.12850000000000000          3.7447685485858528E-007
 -0.12800000000000000          6.1651491023440030E-007
 -0.12750000000000000          8.7678699856041931E-007
 -0.12700000000000000          1.1467641343188006E-006
 -0.12650000000000000          1.4159898000798421E-006
 -0.12600000000000000          1.6722673308322555E-006
 -0.12550000000000000          1.9019565797862015E-006
 -0.12499999999999999          2.0903839867969509E-006
 -0.12449999999999999          2.2223746327654226E-006
 -0.12399999999999999          2.2828514829598134E-006
 -0.12349999999999998          2.2575375169253675E-006
 -0.12299999999999998          2.1336963982321322E-006
 -0.12249999999999998          1.9008980416401755E-006
 -0.12199999999999998          1.5517746305704350E-006
 -0.12149999999999998          1.0827363894350128E-006
 -0.12099999999999998          4.9460072659712750E-007
 -0.12049999999999998         -2.0688828783477220E-007
 -0.12000000000000000         -1.0106944046128774E-006
 -0.11950000000000000         -1.9002919771082816E-006
 -0.11899999999999999         -2.8536724130390212E-006
 -0.11849999999999999         -3.8435459828178864E-006
 -0.11799999999999999         -4.8378010433225427E-006
 -0.11749999999999999         -5.8001378420158289E-006
 -0.11699999999999999         -6.6909374254464637E-006
 -0.11649999999999999         -7.4683484854176641E-006
 -0.11599999999999999         -8.0894933489616960E-006
 -0.11549999999999999         -8.5118626884650439E-006
 -0.11499999999999999         -8.6948084572213702E-006
 -0.11449999999999999         -8.6010704762884416E-006
 -0.11399999999999999         -8.1983953350572847E-006
 -0.11349999999999999         -7.4610670708352700E-006
 -0.11299999999999999         -6.3714337557030376E-006
 -0.11249999999999999         -4.9212640078621916E-006
 -0.11199999999999999         -3.1130032311921241E-006
 -0.11149999999999999         -9.6079907052626368E-007
 -0.11099999999999999          1.5087218798726099E-006
 -0.11049999999999999          4.2559640860417858E-006
 -0.10999999999999999          7.2281927714357153E-006
 -0.10949999999999999          1.0359699444961734E-005
 -0.10899999999999999          1.3572493116953410E-005
 -0.10849999999999999          1.6777152268332429E-005
 -0.10799999999999998          1.9874483768944629E-005
 -0.10749999999999998          2.2757212718715891E-005
 -0.10699999999999998          2.5312496291007847E-005
 -0.10649999999999998          2.7424657673691399E-005
 -0.10599999999999998          2.8978265618206933E-005
 -0.10549999999999998          2.9861772418371402E-005
 -0.10499999999999998          2.9971177355037071E-005
 -0.10449999999999998          2.9214059395599179E-005
 -0.10399999999999998          2.7513593522598967E-005
 -0.10349999999999998          2.4812477931845933E-005
 -0.10299999999999998          2.1076695702504367E-005
 -0.10249999999999998          1.6299034541589208E-005
 -0.10199999999999998          1.0501873475732282E-005
 -0.10149999999999998          3.7395118397398619E-006
 -0.10099999999999998         -3.9004225982353091E-006
 -0.10049999999999998         -1.2296509339648765E-005
  -9.9999999999999978E-002    -2.1293957615853287E-005
  -9.9499999999999977E-002    -3.0706301913596690E-005
  -9.8999999999999977E-002    -4.0318365790881217E-005
  -9.8499999999999976E-002    -4.9889644287759438E-005
  -9.7999999999999976E-002    -5.9160123782930896E-005
  -9.7499999999999976E-002    -6.7855406086891890E-005
  -9.6999999999999975E-002    -7.5694144470617175E-005
  -9.6499999999999975E-002    -8.2395083154551685E-005
  -9.5999999999999974E-002    -8.7685075413901359E-005
  -9.5500000000000002E-002    -9.1307047114241868E-005
  -9.5000000000000001E-002    -9.3027869297657162E-005
  -9.4500000000000001E-002    -9.2645830591209233E-005
  -9.4000000000000000E-002    -8.9997585746459663E-005
  -9.3500000000000000E-002    -8.4964289271738380E-005
  -9.2999999999999999E-002    -7.7475961006712168E-005
  -9.2499999999999999E-002    -6.7515800765249878E-005
  -9.1999999999999998E-002    -5.5121989134931937E-005
  -9.1499999999999998E-002    -4.0388611523667350E-005
  -9.0999999999999998E-002    -2.3465303456760012E-005
  -9.0499999999999997E-002    -4.5548254092864227E-006
  -8.9999999999999997E-002     1.6089959899545647E-005
  -8.9499999999999996E-002     3.8170361222000793E-005
  -8.8999999999999996E-002     6.1347644077613950E-005
  -8.8499999999999995E-002     8.5248662799131125E-005
  -8.7999999999999995E-002     1.0947270493488759E-004
  -8.7499999999999994E-002     1.3359815056901425E-004
  -8.6999999999999994E-002     1.5718993381597102E-004
  -8.6499999999999994E-002     1.7980507982429117E-004
  -8.5999999999999993E-002     2.0100107940379530E-004
  -8.5499999999999993E-002     2.2034048743080348E-004
  -8.4999999999999992E-002     2.3739720927551389E-004
  -8.4499999999999992E-002     2.5176149210892618E-004
  -8.3999999999999991E-002     2.6304461061954498E-004
  -8.3499999999999991E-002     2.7088329079560935E-004
  -8.2999999999999990E-002     2.7494315872900188E-004
  -8.2499999999999990E-002     2.7492229128256440E-004
  -8.1999999999999990E-002     2.7055505779571831E-004
  -8.1499999999999989E-002     2.6161444839090109E-004
  -8.0999999999999989E-002     2.4791603209450841E-004
  -8.0499999999999988E-002     2.2932158026378602E-004
  -7.9999999999999988E-002     2.0574103109538555E-004
  -7.9499999999999987E-002     1.7713772831484675E-004
  -7.8999999999999987E-002     1.4353147707879543E-004
  -7.8499999999999986E-002     1.0500224743736908E-004
  -7.7999999999999986E-002     6.1694416217505932E-005
  -7.7499999999999986E-002     1.3820998901792336E-005
  -7.6999999999999985E-002    -3.8332924304995686E-005
  -7.6499999999999985E-002    -9.4406903372146189E-005
  -7.5999999999999984E-002    -1.5396070375572890E-004
  -7.5499999999999984E-002    -2.1647244284395128E-004
  -7.4999999999999983E-002    -2.8133700834587216E-004
  -7.4499999999999983E-002    -3.4786239848472178E-004
  -7.3999999999999982E-002    -4.1527152643539011E-004
  -7.3499999999999982E-002    -4.8270015395246446E-004
  -7.2999999999999982E-002    -5.4920074762776494E-004
  -7.2499999999999981E-002    -6.1374437063932419E-004
  -7.1999999999999981E-002    -6.7522440804168582E-004
  -7.1499999999999980E-002    -7.3246029205620289E-004
  -7.0999999999999980E-002    -7.8421243233606219E-004
  -7.0499999999999979E-002    -8.2918175030499697E-004
  -6.9999999999999979E-002    -8.6602801457047462E-004
  -6.9499999999999978E-002    -8.9338026009500027E-004
  -6.8999999999999978E-002    -9.0986059512943029E-004
  -6.8499999999999978E-002    -9.1408623848110437E-004
  -6.7999999999999977E-002    -9.0470927534624934E-004
  -6.7499999999999977E-002    -8.8043260620906949E-004
  -6.6999999999999976E-002    -8.4003183292225003E-004
  -6.6499999999999976E-002    -7.8239454887807369E-004
  -6.5999999999999975E-002    -7.0654181763529778E-004
  -6.5499999999999975E-002    -6.1166932573541999E-004
  -6.4999999999999974E-002    -4.9716612556949258E-004
  -6.4499999999999974E-002    -3.6266684764996171E-004
  -6.4000000000000001E-002    -2.0808483532164246E-004
  -6.3500000000000001E-002    -3.3618329325690866E-005
  -6.3000000000000000E-002     1.6017517191357911E-004
  -6.2500000000000000E-002     3.7238452932797372E-004
  -6.2000000000000000E-002     6.0171470977365971E-004
  -6.1499999999999999E-002     8.4645423339679837E-004
  -6.0999999999999999E-002     1.1044691782444715E-003
  -6.0499999999999998E-002     1.3731552753597498E-003
  -5.9999999999999998E-002     1.6495158197358251E-003
  -5.9499999999999997E-002     1.9300829153507948E-003
  -5.8999999999999997E-002     2.2109514102339745E-003
  -5.8499999999999996E-002     2.4878170806914568E-003
  -5.7999999999999996E-002     2.7559157460927963E-003
  -5.7499999999999996E-002     3.0101549345999956E-003
  -5.6999999999999995E-002     3.2450170256197453E-003
  -5.6499999999999995E-002     3.4547252580523491E-003
  -5.5999999999999994E-002     3.6331657320261002E-003
  -5.5499999999999994E-002     3.7739437539130449E-003
  -5.4999999999999993E-002     3.8704101461917162E-003
  -5.4499999999999993E-002     3.9157443679869175E-003
  -5.3999999999999992E-002     3.9028723258525133E-003
  -5.3499999999999992E-002     3.8246272597461939E-003
  -5.2999999999999992E-002     3.6736337933689356E-003
  -5.2499999999999991E-002     3.4423861652612686E-003
  -5.1999999999999991E-002     3.1233609188348055E-003
  -5.1499999999999990E-002     2.7086837217211723E-003
  -5.0999999999999990E-002     2.1906427573412657E-003
  -5.0499999999999989E-002     1.5612101415172219E-003
  -4.9999999999999989E-002     8.1243726890534163E-004
  -4.9499999999999988E-002    -6.4024068706203252E-005
  -4.8999999999999988E-002    -1.0763725731521845E-003
  -4.8499999999999988E-002    -2.2330863866955042E-003
  -4.7999999999999987E-002    -3.5427750553935766E-003
  -4.7499999999999987E-002    -5.0143352709710598E-003
  -4.6999999999999986E-002    -6.6565964370965958E-003
  -4.6499999999999986E-002    -8.4787178784608841E-003
  -4.5999999999999985E-002    -1.0490294545888901E-002
  -4.5499999999999985E-002    -1.2700529769062996E-002
  -4.4999999999999984E-002    -1.5119694173336029E-002
  -4.4499999999999984E-002    -1.7757985740900040E-002
  -4.3999999999999984E-002    -2.0625306293368340E-002
  -4.3499999999999983E-002    -2.3732729256153107E-002
  -4.2999999999999983E-002    -2.7091613039374352E-002
  -4.2499999999999982E-002    -3.0713329091668129E-002
  -4.1999999999999982E-002    -3.4610182046890259E-002
  -4.1499999999999981E-002    -3.8794223219156265E-002
  -4.0999999999999981E-002    -4.3278679251670837E-002
  -4.0499999999999980E-002    -4.8077818006277084E-002
  -3.9999999999999980E-002    -5.3205672651529312E-002
  -3.9499999999999980E-002    -5.8677803725004196E-002
  -3.8999999999999979E-002    -6.4510375261306763E-002
  -3.8499999999999979E-002    -7.0720918476581573E-002
  -3.7999999999999978E-002    -7.7328369021415710E-002
  -3.7499999999999978E-002    -8.4351815283298492E-002
  -3.6999999999999977E-002    -9.1813221573829651E-002
  -3.6499999999999977E-002    -9.9735744297504425E-002
  -3.5999999999999976E-002   -0.10814332216978073     
  -3.5499999999999976E-002   -0.11706373840570450     
  -3.4999999999999976E-002   -0.12652461230754852     
  -3.4499999999999975E-002   -0.13655866682529449     
  -3.3999999999999975E-002   -0.14719861745834351     
  -3.3499999999999974E-002   -0.15848146378993988     
  -3.2999999999999974E-002   -0.17044724524021149     
  -3.2499999999999973E-002   -0.18313731253147125     
  -3.1999999999999973E-002   -0.19659915566444397     
  -3.1500000000000000E-002   -0.21088287234306335     
  -3.1000000000000000E-002   -0.22604145109653473     
  -3.0499999999999999E-002   -0.24213160574436188     
  -2.9999999999999999E-002   -0.25921818614006042     
  -2.9499999999999998E-002   -0.27736762166023254     
  -2.8999999999999998E-002   -0.29664975404739380     
  -2.8499999999999998E-002   -0.31714567542076111     
  -2.7999999999999997E-002   -0.33893489837646484     
  -2.7499999999999997E-002   -0.36210650205612183     
  -2.6999999999999996E-002   -0.38675588369369507     
  -2.6499999999999996E-002   -0.41298204660415649     
  -2.5999999999999995E-002   -0.44089287519454956     
  -2.5499999999999995E-002   -0.47060769796371460     
  -2.4999999999999994E-002   -0.50224173069000244     
  -2.4499999999999994E-002   -0.53592288494110107     
  -2.3999999999999994E-002   -0.57179600000381470     
  -2.3499999999999993E-002   -0.60999774932861328     
  -2.2999999999999993E-002   -0.65069073438644409     
  -2.2499999999999992E-002   -0.69403475522994995     
  -2.1999999999999992E-002   -0.74020302295684814     
  -2.1499999999999991E-002   -0.78938078880310059     
  -2.0999999999999991E-002   -0.84175425767898560     
  -2.0499999999999990E-002   -0.89754945039749146     
  -1.9999999999999990E-002   -0.95696705579757690     
  -1.9499999999999990E-002    -1.0202488899230957     
  -1.8999999999999989E-002    -1.0876346826553345     
  -1.8499999999999989E-002    -1.1593880653381348     
  -1.7999999999999988E-002    -1.2357822656631470     
  -1.7499999999999988E-002    -1.3171024322509766     
  -1.6999999999999987E-002    -1.4036779403686523     
  -1.6499999999999987E-002    -1.4958078861236572     
  -1.5999999999999986E-002    -1.5938509702682495     
  -1.5499999999999986E-002    -1.6981745958328247     
  -1.4999999999999986E-002    -1.8091692924499512     
  -1.4499999999999985E-002    -1.9272249937057495     
  -1.3999999999999985E-002    -2.0527949333190918     
  -1.3499999999999984E-002    -2.1863241195678711     
  -1.2999999999999984E-002    -2.3283102512359619     
  -1.2499999999999983E-002    -2.4792544841766357     
  -1.1999999999999983E-002    -2.6396863460540771     
  -1.1499999999999982E-002    -2.8101985454559326     
  -1.0999999999999982E-002    -2.9913887977600098     
  -1.0499999999999982E-002    -3.1838889122009277     
  -9.9999999999999811E-003    -3.3883666992187500     
  -9.4999999999999807E-003    -3.6055386066436768     
  -8.9999999999999802E-003    -3.8361678123474121     
  -8.4999999999999798E-003    -4.0810675621032715     
  -7.9999999999999793E-003    -4.3410210609436035     
  -7.4999999999999789E-003    -4.6169261932373047     
  -6.9999999999999785E-003    -4.9097738265991211     
  -6.4999999999999780E-003    -5.2205033302307129     
  -5.9999999999999776E-003    -5.5501604080200195     
  -5.4999999999999771E-003    -5.8998174667358398     
  -4.9999999999999767E-003    -6.2706909179687500     
  -4.4999999999999762E-003    -6.6640000343322754     
  -3.9999999999999758E-003    -7.0809979438781738     
  -3.4999999999999754E-003    -7.5230393409729004     
  -2.9999999999999749E-003    -7.9916210174560547     
  -2.4999999999999745E-003    -8.4881925582885742     
  -1.9999999999999740E-003    -9.0144472122192383     
  -1.4999999999999736E-003    -9.5720214843750000     
  -9.9999999999997313E-004    -10.162689208984375     
  -4.9999999999997269E-004    -10.788334846496582     
   0.0000000000000000         -11.450927734375000     
   5.0000000000000044E-004    -12.152587890625000     
   1.0000000000000009E-003    -12.895469665527344     
   1.5000000000000013E-003    -13.682000160217285     
   2.0000000000000018E-003    -14.514487266540527     
   2.5000000000000022E-003    -15.395541191101074     
   3.0000000000000027E-003    -16.327909469604492     
   3.5000000000000031E-003    -17.314388275146484     
   4.0000000000000036E-003    -18.358047485351562     
   4.5000000000000040E-003    -19.461944580078125     
   5.0000000000000044E-003    -20.629426956176758     
   5.5000000000000049E-003    -21.864122390747070     
   6.0000000000000053E-003    -23.169548034667969     
   6.5000000000000058E-003    -24.549610137939453     
   7.0000000000000062E-003    -26.008358001708984     
   7.5000000000000067E-003    -27.550056457519531     
   8.0000000000000071E-003    -29.179323196411133     
   8.5000000000000075E-003    -30.900760650634766     
   9.0000000000000080E-003    -32.719436645507812     
   9.5000000000000084E-003    -34.640445709228516     
   1.0000000000000009E-002    -36.669330596923828     
   1.0500000000000009E-002    -38.812026977539062     
   1.1000000000000010E-002    -41.074279785156250     
   1.1500000000000010E-002    -43.462642669677734     
   1.2000000000000011E-002    -45.983631134033203     
   1.2500000000000011E-002    -48.644424438476562     
   1.3000000000000012E-002    -51.452049255371094     
   1.3500000000000012E-002    -54.414630889892578     
   1.4000000000000012E-002    -57.539978027343750     
   1.4500000000000013E-002    -60.836318969726562     
   1.5000000000000013E-002    -64.313262939453125     
   1.5500000000000014E-002    -67.979614257812500     
   1.6000000000000014E-002    -71.845504760742188     
   1.6500000000000015E-002    -75.920959472656250     
   1.7000000000000015E-002    -80.216773986816406     
   1.7500000000000016E-002    -84.744430541992188     
   1.8000000000000016E-002    -89.515541076660156     
   1.8500000000000016E-002    -94.542510986328125     
   1.9000000000000017E-002    -99.838272094726562     
   1.9500000000000017E-002    -105.41707611083984     
   2.0000000000000018E-002    -111.29180908203125     
   2.0500000000000018E-002    -117.47898101806641     
   2.1000000000000019E-002    -123.99272918701172     
   2.1500000000000019E-002    -130.85037231445312     
   2.2000000000000020E-002    -138.06819152832031     
   2.2500000000000020E-002    -145.66510009765625     
   2.3000000000000020E-002    -153.65892028808594     
   2.3500000000000021E-002    -162.07072448730469     
   2.4000000000000021E-002    -170.91882324218750     
   2.4500000000000022E-002    -180.22544860839844     
   2.5000000000000022E-002    -190.01377868652344     
   2.5500000000000023E-002    -200.30775451660156     
   2.6000000000000023E-002    -211.12841796875000     
   2.6500000000000024E-002    -222.50433349609375     
   2.7000000000000024E-002    -234.46206665039062     
   2.7500000000000024E-002    -247.02995300292969     
   2.8000000000000025E-002    -260.23449707031250     
   2.8500000000000025E-002    -274.10897827148438     
   2.9000000000000026E-002    -288.68423461914062     
   2.9500000000000026E-002    -303.99182128906250     
   3.0000000000000027E-002    -320.06759643554688     
   3.0500000000000027E-002    -336.94754028320312     
   3.1000000000000028E-002    -354.67056274414062     
   3.1500000000000028E-002    -373.27542114257812     
   3.2000000000000028E-002    -392.79946899414062     