  -1.2000000000000000          0.0000000000000000     
  -1.1999000000000000          0.0000000000000000     
  -1.1998000000000000          0.0000000000000000     
  -1.1997000000000000          0.0000000000000000     
  -1.1996000000000000          0.0000000000000000     
  -1.1995000000000000          0.0000000000000000     
  -1.1994000000000000          0.0000000000000000     
  -1.1993000000000000          0.0000000000000000     
  -1.1992000000000000          0.0000000000000000     
  -1.1991000000000001          0.0000000000000000     
  -1.1990000000000001          0.0000000000000000     
  -1.1988999999999999          0.0000000000000000     
  -1.1987999999999999          0.0000000000000000     
  -1.1986999999999999          0.0000000000000000     
  -1.1985999999999999          0.0000000000000000     
  -1.1984999999999999          0.0000000000000000     
  -1.1983999999999999          0.0000000000000000     
  -1.1982999999999999          0.0000000000000000     
  -1.1981999999999999          0.0000000000000000     
  -1.1980999999999999          0.0000000000000000     
  -1.1980000000000000          0.0000000000000000     
  -1.1979000000000000          0.0000000000000000     
  -1.1978000000000000          0.0000000000000000     
  -1.1977000000000000          0.0000000000000000     
  -1.1976000000000000          0.0000000000000000     
  -1.1975000000000000          0.0000000000000000     
  -1.1974000000000000          0.0000000000000000     
  -1.1973000000000000          0.0000000000000000     
  -1.1972000000000000          0.0000000000000000     
  -1.1971000000000001          0.0000000000000000     
  -1.1970000000000001          0.0000000000000000     
  -1.1968999999999999          0.0000000000000000     
  -1.1967999999999999          0.0000000000000000     
  -1.1966999999999999          0.0000000000000000     
  -1.1965999999999999          0.0000000000000000     
  -1.1964999999999999          0.0000000000000000     
  -1.1963999999999999          0.0000000000000000     
  -1.1962999999999999          0.0000000000000000     
  -1.1961999999999999          0.0000000000000000     
  -1.1960999999999999          0.0000000000000000     
  -1.1960000000000000          0.0000000000000000     
  -1.1959000000000000          0.0000000000000000     
  -1.1958000000000000          0.0000000000000000     
  -1.1957000000000000          0.0000000000000000     
  -1.1956000000000000          0.0000000000000000     
  -1.1955000000000000          0.0000000000000000     
  -1.1954000000000000          0.0000000000000000     
  -1.1953000000000000          0.0000000000000000     
  -1.1952000000000000          0.0000000000000000     
  -1.1951000000000001          0.0000000000000000     
  -1.1950000000000001          0.0000000000000000     
  -1.1948999999999999          0.0000000000000000     
  -1.1947999999999999          0.0000000000000000     
  -1.1946999999999999          0.0000000000000000     
  -1.1945999999999999          0.0000000000000000     
  -1.1944999999999999          0.0000000000000000     
  -1.1943999999999999          0.0000000000000000     
  -1.1942999999999999          0.0000000000000000     
  -1.1941999999999999          0.0000000000000000     
  -1.1940999999999999          0.0000000000000000     
  -1.1940000000000000          0.0000000000000000     
  -1.1939000000000000          0.0000000000000000     
  -1.1938000000000000          0.0000000000000000     
  -1.1937000000000000          0.0000000000000000     
  -1.1936000000000000          0.0000000000000000     
  -1.1935000000000000          0.0000000000000000     
  -1.1934000000000000          0.0000000000000000     
  -1.1933000000000000          0.0000000000000000     
  -1.1932000000000000          0.0000000000000000     
  -1.1931000000000000          0.0000000000000000     
  -1.1930000000000001          0.0000000000000000     
  -1.1928999999999998          0.0000000000000000     
  -1.1927999999999999          0.0000000000000000     
  -1.1926999999999999          0.0000000000000000     
  -1.1925999999999999          0.0000000000000000     
  -1.1924999999999999          0.0000000000000000     
  -1.1923999999999999          0.0000000000000000     
  -1.1922999999999999          0.0000000000000000     
  -1.1921999999999999          0.0000000000000000     
  -1.1920999999999999          0.0000000000000000     
  -1.1919999999999999          0.0000000000000000     
  -1.1919000000000000          0.0000000000000000     
  -1.1918000000000000          0.0000000000000000     
  -1.1917000000000000          0.0000000000000000     
  -1.1916000000000000          0.0000000000000000     
  -1.1915000000000000          0.0000000000000000     
  -1.1914000000000000          0.0000000000000000     
  -1.1913000000000000          0.0000000000000000     
  -1.1912000000000000          0.0000000000000000     
  -1.1911000000000000          0.0000000000000000     
  -1.1910000000000001          0.0000000000000000     
  -1.1908999999999998          0.0000000000000000     
  -1.1907999999999999          0.0000000000000000     
  -1.1906999999999999          0.0000000000000000     
  -1.1905999999999999          0.0000000000000000     
  -1.1904999999999999          0.0000000000000000     
  -1.1903999999999999          0.0000000000000000     
  -1.1902999999999999          0.0000000000000000     
  -1.1901999999999999          0.0000000000000000     
  -1.1900999999999999          0.0000000000000000     
  -1.1899999999999999          0.0000000000000000     
  -1.1899000000000000          0.0000000000000000     
  -1.1898000000000000          0.0000000000000000     
  -1.1897000000000000          0.0000000000000000     
  -1.1896000000000000          0.0000000000000000     
  -1.1895000000000000          0.0000000000000000     
  -1.1894000000000000          0.0000000000000000     
  -1.1893000000000000          0.0000000000000000     
  -1.1892000000000000          0.0000000000000000     
  -1.1891000000000000          0.0000000000000000     
  -1.1890000000000001          0.0000000000000000     
  -1.1888999999999998          0.0000000000000000     
  -1.1887999999999999          0.0000000000000000     
  -1.1886999999999999          0.0000000000000000     
  -1.1885999999999999          0.0000000000000000     
  -1.1884999999999999          0.0000000000000000     
  -1.1883999999999999          0.0000000000000000     
  -1.1882999999999999          0.0000000000000000     
  -1.1881999999999999          0.0000000000000000     
  -1.1880999999999999          0.0000000000000000     
  -1.1879999999999999          0.0000000000000000     
  -1.1879000000000000          0.0000000000000000     
  -1.1878000000000000          0.0000000000000000     
  -1.1877000000000000          0.0000000000000000     
  -1.1876000000000000          0.0000000000000000     
  -1.1875000000000000          0.0000000000000000     
  -1.1874000000000000          0.0000000000000000     
  -1.1873000000000000          0.0000000000000000     
  -1.1872000000000000          0.0000000000000000     
  -1.1871000000000000          0.0000000000000000     
  -1.1870000000000001          0.0000000000000000     
  -1.1869000000000001          0.0000000000000000     
  -1.1867999999999999          0.0000000000000000     
  -1.1866999999999999          0.0000000000000000     
  -1.1865999999999999          0.0000000000000000     
  -1.1864999999999999          0.0000000000000000     
  -1.1863999999999999          0.0000000000000000     
  -1.1862999999999999          0.0000000000000000     
  -1.1861999999999999          0.0000000000000000     
  -1.1860999999999999          0.0000000000000000     
  -1.1859999999999999          0.0000000000000000     
  -1.1859000000000000          0.0000000000000000     
  -1.1858000000000000          0.0000000000000000     
  -1.1857000000000000          0.0000000000000000     
  -1.1856000000000000          0.0000000000000000     
  -1.1855000000000000          0.0000000000000000     
  -1.1854000000000000          0.0000000000000000     
  -1.1853000000000000          0.0000000000000000     
  -1.1852000000000000          0.0000000000000000     
  -1.1851000000000000          0.0000000000000000     
  -1.1850000000000001          0.0000000000000000     
  -1.1849000000000001          0.0000000000000000     
  -1.1847999999999999          0.0000000000000000     
  -1.1846999999999999          0.0000000000000000     
  -1.1845999999999999          0.0000000000000000     
  -1.1844999999999999          0.0000000000000000     
  -1.1843999999999999          0.0000000000000000     
  -1.1842999999999999          0.0000000000000000     
  -1.1841999999999999          0.0000000000000000     
  -1.1840999999999999          0.0000000000000000     
  -1.1839999999999999          0.0000000000000000     
  -1.1839000000000000          0.0000000000000000     
  -1.1838000000000000          0.0000000000000000     
  -1.1837000000000000          0.0000000000000000     
  -1.1836000000000000          0.0000000000000000     
  -1.1835000000000000          0.0000000000000000     
  -1.1834000000000000          0.0000000000000000     
  -1.1833000000000000          0.0000000000000000     
  -1.1832000000000000          0.0000000000000000     
  -1.1831000000000000          0.0000000000000000     
  -1.1830000000000001          0.0000000000000000     
  -1.1829000000000001          0.0000000000000000     
  -1.1827999999999999          0.0000000000000000     
  -1.1826999999999999          0.0000000000000000     
  -1.1825999999999999          0.0000000000000000     
  -1.1824999999999999          0.0000000000000000     
  -1.1823999999999999          0.0000000000000000     
  -1.1822999999999999          0.0000000000000000     
  -1.1821999999999999          0.0000000000000000     
  -1.1820999999999999          0.0000000000000000     
  -1.1819999999999999          0.0000000000000000     
  -1.1819000000000000          0.0000000000000000     
  -1.1818000000000000          0.0000000000000000     
  -1.1817000000000000          0.0000000000000000     
  -1.1816000000000000          0.0000000000000000     
  -1.1815000000000000          0.0000000000000000     
  -1.1814000000000000          0.0000000000000000     
  -1.1813000000000000          0.0000000000000000     
  -1.1812000000000000          0.0000000000000000     
  -1.1811000000000000          0.0000000000000000     
  -1.1810000000000000          0.0000000000000000     
  -1.1809000000000001          0.0000000000000000     
  -1.1807999999999998          0.0000000000000000     
  -1.1806999999999999          0.0000000000000000     
  -1.1805999999999999          0.0000000000000000     
  -1.1804999999999999          0.0000000000000000     
  -1.1803999999999999          0.0000000000000000     
  -1.1802999999999999          0.0000000000000000     
  -1.1801999999999999          0.0000000000000000     
  -1.1800999999999999          0.0000000000000000     
  -1.1799999999999999          0.0000000000000000     
  -1.1798999999999999          0.0000000000000000     
  -1.1798000000000000          0.0000000000000000     
  -1.1797000000000000          0.0000000000000000     
  -1.1796000000000000          0.0000000000000000     
  -1.1795000000000000          0.0000000000000000     
  -1.1794000000000000          0.0000000000000000     
  -1.1793000000000000          0.0000000000000000     
  -1.1792000000000000          0.0000000000000000     
  -1.1791000000000000          0.0000000000000000     
  -1.1790000000000000          0.0000000000000000     
  -1.1789000000000001          0.0000000000000000     
  -1.1787999999999998          0.0000000000000000     
  -1.1786999999999999          0.0000000000000000     
  -1.1785999999999999          0.0000000000000000     
  -1.1784999999999999          0.0000000000000000     
  -1.1783999999999999          0.0000000000000000     
  -1.1782999999999999          0.0000000000000000     
  -1.1781999999999999          0.0000000000000000     
  -1.1780999999999999          0.0000000000000000     
  -1.1779999999999999          0.0000000000000000     
  -1.1778999999999999          0.0000000000000000     
  -1.1778000000000000          0.0000000000000000     
  -1.1777000000000000          0.0000000000000000     
  -1.1776000000000000          0.0000000000000000     
  -1.1775000000000000          0.0000000000000000     
  -1.1774000000000000          0.0000000000000000     
  -1.1773000000000000          0.0000000000000000     
  -1.1772000000000000          0.0000000000000000     
  -1.1771000000000000          0.0000000000000000     
  -1.1770000000000000          0.0000000000000000     
  -1.1769000000000001          0.0000000000000000     
  -1.1767999999999998          0.0000000000000000     
  -1.1766999999999999          0.0000000000000000     
  -1.1765999999999999          0.0000000000000000     
  -1.1764999999999999          0.0000000000000000     
  -1.1763999999999999          0.0000000000000000     
  -1.1762999999999999          0.0000000000000000     
  -1.1761999999999999          0.0000000000000000     
  -1.1760999999999999          0.0000000000000000     
  -1.1759999999999999          0.0000000000000000     
  -1.1758999999999999          0.0000000000000000     
  -1.1758000000000000          0.0000000000000000     
  -1.1757000000000000          0.0000000000000000     
  -1.1756000000000000          0.0000000000000000     
  -1.1755000000000000          0.0000000000000000     
  -1.1754000000000000          0.0000000000000000     
  -1.1753000000000000          0.0000000000000000     
  -1.1752000000000000          0.0000000000000000     
  -1.1751000000000000          0.0000000000000000     
  -1.1750000000000000          0.0000000000000000     
  -1.1749000000000001          0.0000000000000000     
  -1.1747999999999998          0.0000000000000000     
  -1.1746999999999999          0.0000000000000000     
  -1.1745999999999999          0.0000000000000000     
  -1.1744999999999999          0.0000000000000000     
  -1.1743999999999999          0.0000000000000000     
  -1.1742999999999999          0.0000000000000000     
  -1.1741999999999999          0.0000000000000000     
  -1.1740999999999999          0.0000000000000000     
  -1.1739999999999999          0.0000000000000000     
  -1.1738999999999999          0.0000000000000000     
  -1.1738000000000000          0.0000000000000000     
  -1.1737000000000000          0.0000000000000000     
  -1.1736000000000000          0.0000000000000000     
  -1.1735000000000000          0.0000000000000000     
  -1.1734000000000000          0.0000000000000000     
  -1.1733000000000000          0.0000000000000000     
  -1.1732000000000000          0.0000000000000000     
  -1.1731000000000000          0.0000000000000000     
  -1.1730000000000000          0.0000000000000000     
  -1.1729000000000001          0.0000000000000000     
  -1.1728000000000001          0.0000000000000000     
  -1.1726999999999999          0.0000000000000000     
  -1.1725999999999999          0.0000000000000000     
  -1.1724999999999999          0.0000000000000000     
  -1.1723999999999999          0.0000000000000000     
  -1.1722999999999999          0.0000000000000000     
  -1.1721999999999999          0.0000000000000000     
  -1.1720999999999999          0.0000000000000000     
  -1.1719999999999999          0.0000000000000000     
  -1.1718999999999999          0.0000000000000000     
  -1.1718000000000000          0.0000000000000000     
  -1.1717000000000000          0.0000000000000000     
  -1.1716000000000000          0.0000000000000000     
  -1.1715000000000000          0.0000000000000000     
  -1.1714000000000000          0.0000000000000000     
  -1.1713000000000000          0.0000000000000000     
  -1.1712000000000000          0.0000000000000000     
  -1.1711000000000000          0.0000000000000000     
  -1.1710000000000000          0.0000000000000000     
  -1.1709000000000001          0.0000000000000000     
  -1.1708000000000001          0.0000000000000000     
  -1.1706999999999999          0.0000000000000000     
  -1.1705999999999999          0.0000000000000000     
  -1.1704999999999999          0.0000000000000000     
  -1.1703999999999999          0.0000000000000000     
  -1.1702999999999999          6.3528568663749380E-029
  -1.1701999999999999          8.8223907690683008E-029
  -1.1700999999999999          1.1315256109331700E-028
  -1.1699999999999999          1.3667200553711177E-028
  -1.1698999999999999          1.5679396511426163E-028
  -1.1698000000000000          1.7118954515070276E-028
  -1.1697000000000000          1.7730898291893662E-028
  -1.1696000000000000          1.7251710069843104E-028
  -1.1695000000000000          9.1692597798490563E-029
  -1.1694000000000000          0.0000000000000000     
  -1.1693000000000000          0.0000000000000000     
  -1.1692000000000000         -1.1245519389751653E-028
  -1.1691000000000000         -2.1437336025392314E-028
  -1.1690000000000000         -3.3235132678584020E-028
  -1.1689000000000001         -4.6236142027469500E-028
  -1.1688000000000001         -5.9957449175555806E-028
  -1.1686999999999999         -7.3746770539628147E-028
  -1.1685999999999999         -8.6783876630496304E-028
  -1.1684999999999999         -9.8073417963951788E-028
  -1.1683999999999999         -1.0606401463636693E-027
  -1.1682999999999999         -1.1061361005504373E-027
  -1.1681999999999999         -1.0855162278973526E-027
  -1.1680999999999999         -1.0004077466144279E-027
  -1.1679999999999999         -8.3322980520432441E-028
  -1.1678999999999999         -5.6572401001526773E-028
  -1.1677999999999999         -2.0080590601944421E-028
  -1.1677000000000000          2.7818948229543169E-028
  -1.1676000000000000          9.0950366064635596E-028
  -1.1675000000000000          1.5430329232486929E-027
  -1.1674000000000000          2.3155837055496725E-027
  -1.1673000000000000          3.1563601709445811E-027
  -1.1672000000000000          4.0345231736059236E-027
  -1.1671000000000000          4.9052160717919713E-027
  -1.1670000000000000          5.7257034430017436E-027
  -1.1669000000000000          6.4392404577257929E-027
  -1.1668000000000001          6.9586976600940516E-027
  -1.1666999999999998          7.2109243789588038E-027
  -1.1665999999999999          7.1245679913684134E-027
  -1.1664999999999999          6.4727485572702198E-027
  -1.1663999999999999          5.4410167156683001E-027
  -1.1662999999999999          3.8411413182619790E-027
  -1.1661999999999999          1.6229965715746788E-027
  -1.1660999999999999         -1.2459382959520374E-027
  -1.1659999999999999         -4.7698439967449480E-027
  -1.1658999999999999         -8.9178267848626346E-027
  -1.1657999999999999         -1.3559633032974775E-026
  -1.1657000000000000         -1.8682048935732928E-026
  -1.1656000000000000         -2.4127606609024104E-026
  -1.1655000000000000         -2.9603410626905893E-026
  -1.1654000000000000         -3.4641159567820872E-026
  -1.1653000000000000         -3.9133851845546797E-026
  -1.1652000000000000         -4.2600972561190919E-026
  -1.1651000000000000         -4.4595061936681997E-026
  -1.1650000000000000         -4.4649656658001531E-026
  -1.1649000000000000         -4.2286965861570113E-026
  -1.1648000000000001         -3.7045117650356664E-026
  -1.1646999999999998         -2.8507316132492496E-026
  -1.1645999999999999         -1.6334876512421405E-026
  -1.1644999999999999         -3.0532785743828945E-028
  -1.1643999999999999          1.9649659250952408E-026
  -1.1642999999999999          4.3402769552662391E-026
  -1.1641999999999999          7.0592715706826997E-026
  -1.1640999999999999          1.0058729657213354E-025
  -1.1639999999999999          1.3245460241155565E-025
  -1.1638999999999999          1.6494237200483737E-025
  -1.1637999999999999          1.9646958018649608E-025
  -1.1637000000000000          2.2513550358325666E-025
  -1.1636000000000000          2.4873950376644032E-025
  -1.1635000000000000          2.6484276794374972E-025
  -1.1634000000000000          2.7082465088423407E-025
  -1.1633000000000000          2.6399023117233540E-025
  -1.1632000000000000          2.4169036597690180E-025
  -1.1631000000000000          2.0147225255051992E-025
  -1.1630000000000000          1.4125334740721287E-025
  -1.1629000000000000          5.9513626516184539E-026
  -1.1628000000000001         -4.4497461970076274E-026
  -1.1627000000000001         -1.7054494843537851E-025
  -1.1625999999999999         -3.1719919505233210E-025
  -1.1624999999999999         -4.8163833542939669E-025
  -1.1623999999999999         -6.5947790530725718E-025
  -1.1622999999999999         -8.4464964147630752E-025
  -1.1621999999999999         -1.0293279944529487E-024
  -1.1620999999999999         -1.2039442293682696E-024
  -1.1619999999999999         -1.3572809413652536E-024
  -1.1618999999999999         -1.4766796739282719E-024
  -1.1617999999999999         -1.5483643518542237E-024
  -1.1617000000000000         -1.5578901431076068E-024
  -1.1616000000000000         -1.4907363863984051E-024
  -1.1615000000000000         -1.3330153827054290E-024
  -1.1614000000000000         -1.0723155889763836E-024
  -1.1613000000000000         -6.9866116881145718E-025
  -1.1612000000000000         -2.0552942581582981E-025
  -1.1611000000000000          4.0903596575164005E-025
  -1.1610000000000000          1.1413600480601737E-024
  -1.1609000000000000          1.9810750687514844E-024
  -1.1608000000000001          2.9101875543117399E-024
  -1.1606999999999998          3.9023075436633554E-024
  -1.1605999999999999          4.9221630935816365E-024
  -1.1604999999999999          5.9254095715709418E-024
  -1.1603999999999999          6.8588749916062068E-024
  -1.1602999999999999          7.6612901049007261E-024
  -1.1601999999999999          8.2645699044466844E-024
  -1.1600999999999999          8.5956903251086780E-024
  -1.1599999999999999          8.5792307423212416E-024
  -1.1598999999999999          8.1405357265969743E-024
  -1.1597999999999999          7.2095465409431980E-024
  -1.1597000000000000          5.7251753745814080E-024
  -1.1596000000000000          3.6401947028378329E-024
  -1.1595000000000000          9.2641615898621008E-025
  -1.1594000000000000         -2.4199438310901266E-024
  -1.1593000000000000         -6.3728980198057077E-024
  -1.1592000000000000         -1.0871752829619413E-023
  -1.1591000000000000         -1.5816736880328188E-023
  -1.1590000000000000         -2.1065728991247416E-023
  -1.1589000000000000         -2.6432236133495607E-023
  -1.1588000000000001         -3.1684989533210929E-023
  -1.1587000000000001         -3.6549935756475980E-023
  -1.1585999999999999         -4.0714215723723729E-023
  -1.1584999999999999         -4.3833299167764329E-023
  -1.1583999999999999         -4.5540577182392610E-023
  -1.1582999999999999         -4.5460309007564561E-023
  -1.1581999999999999         -4.3223560175126421E-023
  -1.1580999999999999         -3.8486794382628922E-023
  -1.1579999999999999         -3.0953280022851369E-023
  -1.1578999999999999         -2.0396590350168176E-023
  -1.1577999999999999         -6.6854171003225899E-024
  -1.1577000000000000          1.0191196215798004E-023
  -1.1576000000000000          3.0099120367339783E-023
  -1.1575000000000000          5.2735793276131563E-023
  -1.1574000000000000          7.7611404895234377E-023
  -1.1573000000000000          1.0403289989864450E-022
  -1.1572000000000000          1.3109656554422797E-022
  -1.1571000000000000          1.5768703455353643E-022
  -1.1570000000000000          1.8248731942252150E-022
  -1.1569000000000000          2.0399829413045013E-022
  -1.1568000000000001          2.2057247631930981E-022
  -1.1566999999999998          2.3045966763034099E-022
  -1.1565999999999999          2.3186641488362903E-022
  -1.1564999999999999          2.2302970861931361E-022
  -1.1563999999999999          2.0230283640762569E-022
  -1.1562999999999999          1.6825241905111696E-022
  -1.1561999999999999          1.1976591023793615E-022
  -1.1560999999999999          5.6162554561313704E-023
  -1.1559999999999999         -2.2690004639150152E-023
  -1.1558999999999999         -1.1626624558333710E-022
  -1.1557999999999999         -2.2327701966854401E-022
  -1.1556999999999999         -3.4158141677370805E-022
  -1.1556000000000000         -4.6811864396479721E-022
  -1.1555000000000000         -5.9886891850429488E-022
  -1.1554000000000000         -7.2884775018735881E-022
  -1.1553000000000000         -8.5214345325558621E-022
  -1.1552000000000000         -9.6200459005063562E-022
  -1.1551000000000000         -1.0509753774108863E-021
  -1.1550000000000000         -1.1110961204502370E-021
  -1.1549000000000000         -1.1341557995090700E-021
  -1.1548000000000000         -1.1120049891872475E-021
  -1.1547000000000001         -1.0369276453332982E-021
  -1.1545999999999998         -9.0205641191202387E-022
  -1.1544999999999999         -7.0183568866675128E-022
  -1.1543999999999999         -4.3250676164338126E-022
  -1.1542999999999999         -9.2602191786021682E-023
  -1.1541999999999999          3.1655203407607232E-022
  -1.1540999999999999          7.9039556153691600E-022
  -1.1539999999999999          1.3207153198985382E-021
  -1.1538999999999999          1.8953290753520175E-021
  -1.1537999999999999          2.4978851171055409E-021
  -1.1536999999999999          3.1078029855314295E-021
  -1.1536000000000000          3.7003658130682601E-021
  -1.1535000000000000          4.2470328393570770E-021
  -1.1534000000000000          4.7159505426208779E-021
  -1.1533000000000000          5.0727291312308408E-021
  -1.1532000000000000          5.2814161369028860E-021
  -1.1531000000000000          5.3057606116299471E-021
  -1.1530000000000000          5.1106857353545143E-021
  -1.1529000000000000          4.6639831629753040E-021
  -1.1528000000000000          3.9381774118997712E-021
  -1.1527000000000001          2.9125663485942157E-021
  -1.1525999999999998          1.5752535971982191E-021
  -1.1524999999999999         -7.4749297624234953E-023
  -1.1523999999999999         -2.0255524665374744E-021
  -1.1522999999999999         -4.2505620894510654E-021
  -1.1521999999999999         -6.7070320342760522E-021
  -1.1520999999999999         -9.3349997845380096E-021
  -1.1519999999999999         -1.2056623524848506E-020
  -1.1518999999999999         -1.4776363490560884E-020
  -1.1517999999999999         -1.7381804705518193E-020
  -1.1516999999999999         -1.9745311747175081E-020
  -1.1516000000000000         -2.1726596722347113E-020
  -1.1515000000000000         -2.3176338990184265E-020
  -1.1514000000000000         -2.3940668416467468E-020
  -1.1513000000000000         -2.3866684219257989E-020
  -1.1512000000000000         -2.2808896314800261E-020
  -1.1511000000000000         -2.0636345210020947E-020
  -1.1510000000000000         -1.7240477989806668E-020
  -1.1509000000000000         -1.2543437894588003E-020
  -1.1508000000000000         -6.5064007499503791E-021
  -1.1507000000000001          8.6214535125312376E-022
  -1.1505999999999998          9.4986692625177035E-021
  -1.1504999999999999          1.9277789911194963E-020
  -1.1503999999999999          3.0006758664533883E-020
  -1.1502999999999999          4.1421776800757506E-020
  -1.1501999999999999          5.3186611556734365E-020
  -1.1500999999999999          6.4893566288052386E-020
  -1.1499999999999999          7.6067936258334166E-020
  -1.1498999999999999          8.6175340173650574E-020
  -1.1497999999999999          9.4633093915943357E-020
  -1.1496999999999999          1.0082514826166511E-019
  -1.1496000000000000          1.0412074568200148E-019
  -1.1495000000000000          1.0389676714410714E-019
  -1.1494000000000000          9.9563613816990783E-020
  -1.1493000000000000          9.0593777114390855E-020
  -1.1492000000000000          7.6552864430094843E-020
  -1.1491000000000000          5.7131704085463980E-020
  -1.1490000000000000          3.2179183753516753E-020
  -1.1489000000000000          1.7337903548535362E-021
  -1.1488000000000000         -3.3946367890531067E-020
  -1.1487000000000001         -7.4358218555672413E-020
  -1.1486000000000001         -1.1873319493313189E-019
  -1.1484999999999999         -1.6602309762809141E-019
  -1.1483999999999999         -2.1489606891911257E-019
  -1.1482999999999999         -2.6374147183128099E-019
  -1.1481999999999999         -3.1068572935246698E-019
  -1.1480999999999999         -3.5362312398644611E-019
  -1.1479999999999999         -3.9025802273823059E-019
  -1.1478999999999999         -4.1816192672694128E-019
  -1.1477999999999999         -4.3484486721242874E-019
  -1.1476999999999999         -4.3783962292138869E-019
  -1.1476000000000000         -4.2479937905843163E-019
  -1.1475000000000000         -3.9360474379783185E-019
  -1.1474000000000000         -3.4248027735232085E-019
  -1.1473000000000000         -2.7011533789070248E-019
  -1.1472000000000000         -1.7578606482881044E-019
  -1.1471000000000000         -5.9477659388498258E-020
  -1.1470000000000000          7.8008922028038381E-020
  -1.1469000000000000          2.3495463008685236E-019
  -1.1468000000000000          4.0864467094224171E-019
  -1.1467000000000001          5.9531351165071192E-019
  -1.1465999999999998          7.9012286941186375E-019
  -1.1464999999999999          9.8717316284999830E-019
  -1.1463999999999999          1.1795551074048250E-018
  -1.1462999999999999          1.3594541727331905E-018
  -1.1461999999999999          1.5182912551120011E-018
  -1.1460999999999999          1.6469278699289241E-018
  -1.1459999999999999          1.7359069646382173E-018
  -1.1458999999999999          1.7757576314188783E-018
  -1.1457999999999999          1.7573328036597190E-018
  -1.1456999999999999          1.6721950323175455E-018
  -1.1456000000000000          1.5130287320549388E-018