  -1.2000000000000000          0.0000000000000000     
  -1.1999000000000000          0.0000000000000000     
  -1.1998000000000000          0.0000000000000000     
  -1.1997000000000000          0.0000000000000000     
  -1.1996000000000000          0.0000000000000000     
  -1.1995000000000000          0.0000000000000000     
  -1.1994000000000000          0.0000000000000000     
  -1.1993000000000000          0.0000000000000000     
  -1.1992000000000000          0.0000000000000000     
  -1.1991000000000001          0.0000000000000000     
  -1.1990000000000001          0.0000000000000000     
  -1.1988999999999999          0.0000000000000000     
  -1.1987999999999999          0.0000000000000000     
  -1.1986999999999999          0.0000000000000000     
  -1.1985999999999999          0.0000000000000000     
  -1.1984999999999999          0.0000000000000000     
  -1.1983999999999999          0.0000000000000000     
  -1.1982999999999999          0.0000000000000000     
  -1.1981999999999999          0.0000000000000000     
  -1.1980999999999999          0.0000000000000000     
  -1.1980000000000000          0.0000000000000000     
  -1.1979000000000000          0.0000000000000000     
  -1.1978000000000000          0.0000000000000000     
  -1.1977000000000000          0.0000000000000000     
  -1.1976000000000000          0.0000000000000000     
  -1.1975000000000000          0.0000000000000000     
  -1.1974000000000000          0.0000000000000000     
  -1.1973000000000000          0.0000000000000000     
  -1.1972000000000000          0.0000000000000000     
  -1.1971000000000001          0.0000000000000000     
  -1.1970000000000001          0.0000000000000000     
  -1.1968999999999999          0.0000000000000000     
  -1.1967999999999999          0.0000000000000000     
  -1.1966999999999999          0.0000000000000000     
  -1.1965999999999999          0.0000000000000000     
  -1.1964999999999999          0.0000000000000000     
  -1.1963999999999999          0.0000000000000000     
  -1.1962999999999999          0.0000000000000000     
  -1.1961999999999999          0.0000000000000000     
  -1.1960999999999999          0.0000000000000000     
  -1.1960000000000000          0.0000000000000000     
  -1.1959000000000000          0.0000000000000000     
  -1.1958000000000000          0.0000000000000000     
  -1.1957000000000000          0.0000000000000000     
  -1.1956000000000000          0.0000000000000000     
  -1.1955000000000000          0.0000000000000000     
  -1.1954000000000000          0.0000000000000000     
  -1.1953000000000000          0.0000000000000000     
  -1.1952000000000000          0.0000000000000000     
  -1.1951000000000001          0.0000000000000000     
  -1.1950000000000001          0.0000000000000000     
  -1.1948999999999999          0.0000000000000000     
  -1.1947999999999999          0.0000000000000000     
  -1.1946999999999999          0.0000000000000000     
  -1.1945999999999999          0.0000000000000000     
  -1.1944999999999999          0.0000000000000000     
  -1.1943999999999999          0.0000000000000000     
  -1.1942999999999999          0.0000000000000000     
  -1.1941999999999999          0.0000000000000000     
  -1.1940999999999999          0.0000000000000000     
  -1.1940000000000000          0.0000000000000000     
  -1.1939000000000000          0.0000000000000000     
  -1.1938000000000000          0.0000000000000000     
  -1.1937000000000000          0.0000000000000000     
  -1.1936000000000000          0.0000000000000000     
  -1.1935000000000000          0.0000000000000000     
  -1.1934000000000000          0.0000000000000000     
  -1.1933000000000000          0.0000000000000000     
  -1.1932000000000000          0.0000000000000000     
  -1.1931000000000000          0.0000000000000000     
  -1.1930000000000001          0.0000000000000000     
  -1.1928999999999998          0.0000000000000000     
  -1.1927999999999999          0.0000000000000000     
  -1.1926999999999999          0.0000000000000000     
  -1.1925999999999999          0.0000000000000000     
  -1.1924999999999999          0.0000000000000000     
  -1.1923999999999999          0.0000000000000000     
  -1.1922999999999999          0.0000000000000000     
  -1.1921999999999999          0.0000000000000000     
  -1.1920999999999999          0.0000000000000000     
  -1.1919999999999999          0.0000000000000000     
  -1.1919000000000000          0.0000000000000000     
  -1.1918000000000000          0.0000000000000000     
  -1.1917000000000000          0.0000000000000000     
  -1.1916000000000000          0.0000000000000000     
  -1.1915000000000000          0.0000000000000000     
  -1.1914000000000000          0.0000000000000000     
  -1.1913000000000000          0.0000000000000000     
  -1.1912000000000000          0.0000000000000000     
  -1.1911000000000000          0.0000000000000000     
  -1.1910000000000001          0.0000000000000000     
  -1.1908999999999998          0.0000000000000000     
  -1.1907999999999999          0.0000000000000000     
  -1.1906999999999999          0.0000000000000000     
  -1.1905999999999999          0.0000000000000000     
  -1.1904999999999999          0.0000000000000000     
  -1.1903999999999999          0.0000000000000000     
  -1.1902999999999999          0.0000000000000000     
  -1.1901999999999999          0.0000000000000000     
  -1.1900999999999999          0.0000000000000000     
  -1.1899999999999999          0.0000000000000000     
  -1.1899000000000000          0.0000000000000000     
  -1.1898000000000000          0.0000000000000000     
  -1.1897000000000000          0.0000000000000000     
  -1.1896000000000000          0.0000000000000000     
  -1.1895000000000000          0.0000000000000000     
  -1.1894000000000000          0.0000000000000000     
  -1.1893000000000000          0.0000000000000000     
  -1.1892000000000000          0.0000000000000000     
  -1.1891000000000000          0.0000000000000000     
  -1.1890000000000001          0.0000000000000000     
  -1.1888999999999998          0.0000000000000000     
  -1.1887999999999999          0.0000000000000000     
  -1.1886999999999999          0.0000000000000000     
  -1.1885999999999999          0.0000000000000000     
  -1.1884999999999999          0.0000000000000000     
  -1.1883999999999999          0.0000000000000000     
  -1.1882999999999999          0.0000000000000000     
  -1.1881999999999999          0.0000000000000000     
  -1.1880999999999999          0.0000000000000000     
  -1.1879999999999999          0.0000000000000000     
  -1.1879000000000000          0.0000000000000000     
  -1.1878000000000000          0.0000000000000000     
  -1.1877000000000000          0.0000000000000000     
  -1.1876000000000000          0.0000000000000000     
  -1.1875000000000000          0.0000000000000000     
  -1.1874000000000000          0.0000000000000000     
  -1.1873000000000000          0.0000000000000000     
  -1.1872000000000000          0.0000000000000000     
  -1.1871000000000000          0.0000000000000000     
  -1.1870000000000001          0.0000000000000000     
  -1.1869000000000001          0.0000000000000000     
  -1.1867999999999999          0.0000000000000000     
  -1.1866999999999999          0.0000000000000000     
  -1.1865999999999999          0.0000000000000000     
  -1.1864999999999999          0.0000000000000000     
  -1.1863999999999999          0.0000000000000000     
  -1.1862999999999999          0.0000000000000000     
  -1.1861999999999999          0.0000000000000000     
  -1.1860999999999999          0.0000000000000000     
  -1.1859999999999999          0.0000000000000000     
  -1.1859000000000000          0.0000000000000000     
  -1.1858000000000000          0.0000000000000000     
  -1.1857000000000000          0.0000000000000000     
  -1.1856000000000000          0.0000000000000000     
  -1.1855000000000000          0.0000000000000000     
  -1.1854000000000000          0.0000000000000000     
  -1.1853000000000000          0.0000000000000000     
  -1.1852000000000000          0.0000000000000000     
  -1.1851000000000000          0.0000000000000000     
  -1.1850000000000001          0.0000000000000000     
  -1.1849000000000001          0.0000000000000000     
  -1.1847999999999999          0.0000000000000000     
  -1.1846999999999999          0.0000000000000000     
  -1.1845999999999999          0.0000000000000000     
  -1.1844999999999999          0.0000000000000000     
  -1.1843999999999999          0.0000000000000000     
  -1.1842999999999999          0.0000000000000000     
  -1.1841999999999999          0.0000000000000000     
  -1.1840999999999999          0.0000000000000000     
  -1.1839999999999999          0.0000000000000000     
  -1.1839000000000000          0.0000000000000000     
  -1.1838000000000000          0.0000000000000000     
  -1.1837000000000000          0.0000000000000000     
  -1.1836000000000000          0.0000000000000000     
  -1.1835000000000000          0.0000000000000000     
  -1.1834000000000000          0.0000000000000000     
  -1.1833000000000000          0.0000000000000000     
  -1.1832000000000000          0.0000000000000000     
  -1.1831000000000000          0.0000000000000000     
  -1.1830000000000001          0.0000000000000000     
  -1.1829000000000001          0.0000000000000000     
  -1.1827999999999999          0.0000000000000000     
  -1.1826999999999999          0.0000000000000000     
  -1.1825999999999999          0.0000000000000000     
  -1.1824999999999999          0.0000000000000000     
  -1.1823999999999999          0.0000000000000000     
  -1.1822999999999999          0.0000000000000000     
  -1.1821999999999999          0.0000000000000000     
  -1.1820999999999999          0.0000000000000000     
  -1.1819999999999999          0.0000000000000000     
  -1.1819000000000000          0.0000000000000000     
  -1.1818000000000000          0.0000000000000000     
  -1.1817000000000000          0.0000000000000000     
  -1.1816000000000000          0.0000000000000000     
  -1.1815000000000000          0.0000000000000000     
  -1.1814000000000000          0.0000000000000000     
  -1.1813000000000000          0.0000000000000000     
  -1.1812000000000000          0.0000000000000000     
  -1.1811000000000000          0.0000000000000000     
  -1.1810000000000000          0.0000000000000000     
  -1.1809000000000001          0.0000000000000000     
  -1.1807999999999998          0.0000000000000000     
  -1.1806999999999999          0.0000000000000000     
  -1.1805999999999999          0.0000000000000000     
  -1.1804999999999999          0.0000000000000000     
  -1.1803999999999999          0.0000000000000000     
  -1.1802999999999999          0.0000000000000000     
  -1.1801999999999999          0.0000000000000000     
  -1.1800999999999999          0.0000000000000000     
  -1.1799999999999999          0.0000000000000000     
  -1.1798999999999999          0.0000000000000000     
  -1.1798000000000000          0.0000000000000000     
  -1.1797000000000000          0.0000000000000000     
  -1.1796000000000000          0.0000000000000000     
  -1.1795000000000000          0.0000000000000000     
  -1.1794000000000000          0.0000000000000000     
  -1.1793000000000000          0.0000000000000000     
  -1.1792000000000000          0.0000000000000000     
  -1.1791000000000000          0.0000000000000000     
  -1.1790000000000000          0.0000000000000000     
  -1.1789000000000001          0.0000000000000000     
  -1.1787999999999998          0.0000000000000000     
  -1.1786999999999999          0.0000000000000000     
  -1.1785999999999999          0.0000000000000000     
  -1.1784999999999999          0.0000000000000000     
  -1.1783999999999999          0.0000000000000000     
  -1.1782999999999999          0.0000000000000000     
  -1.1781999999999999          0.0000000000000000     
  -1.1780999999999999          0.0000000000000000     
  -1.1779999999999999          0.0000000000000000     
  -1.1778999999999999          0.0000000000000000     
  -1.1778000000000000          0.0000000000000000     
  -1.1777000000000000          0.0000000000000000     
  -1.1776000000000000          0.0000000000000000     
  -1.1775000000000000          0.0000000000000000     
  -1.1774000000000000          0.0000000000000000     
  -1.1773000000000000          0.0000000000000000     
  -1.1772000000000000          0.0000000000000000     
  -1.1771000000000000          0.0000000000000000     
  -1.1770000000000000          0.0000000000000000     
  -1.1769000000000001          0.0000000000000000     
  -1.1767999999999998          0.0000000000000000     
  -1.1766999999999999          0.0000000000000000     
  -1.1765999999999999          0.0000000000000000     
  -1.1764999999999999          0.0000000000000000     
  -1.1763999999999999          0.0000000000000000     
  -1.1762999999999999          0.0000000000000000     
  -1.1761999999999999          0.0000000000000000     
  -1.1760999999999999          0.0000000000000000     
  -1.1759999999999999          0.0000000000000000     
  -1.1758999999999999          0.0000000000000000     
  -1.1758000000000000          0.0000000000000000     
  -1.1757000000000000          0.0000000000000000     
  -1.1756000000000000          0.0000000000000000     
  -1.1755000000000000          0.0000000000000000     
  -1.1754000000000000          0.0000000000000000     
  -1.1753000000000000          0.0000000000000000     
  -1.1752000000000000          0.0000000000000000     
  -1.1751000000000000          0.0000000000000000     
  -1.1750000000000000          0.0000000000000000     
  -1.1749000000000001          0.0000000000000000     
  -1.1747999999999998          0.0000000000000000     
  -1.1746999999999999          0.0000000000000000     
  -1.1745999999999999          0.0000000000000000     
  -1.1744999999999999          0.0000000000000000     
  -1.1743999999999999          0.0000000000000000     
  -1.1742999999999999          0.0000000000000000     
  -1.1741999999999999          0.0000000000000000     
  -1.1740999999999999          0.0000000000000000     
  -1.1739999999999999          0.0000000000000000     
  -1.1738999999999999          0.0000000000000000     
  -1.1738000000000000          0.0000000000000000     
  -1.1737000000000000          0.0000000000000000     
  -1.1736000000000000          0.0000000000000000     
  -1.1735000000000000          0.0000000000000000     
  -1.1734000000000000          0.0000000000000000     
  -1.1733000000000000          0.0000000000000000     
  -1.1732000000000000          0.0000000000000000     
  -1.1731000000000000          0.0000000000000000     
  -1.1730000000000000          0.0000000000000000     
  -1.1729000000000001          0.0000000000000000     
  -1.1728000000000001          0.0000000000000000     
  -1.1726999999999999          0.0000000000000000     
  -1.1725999999999999          0.0000000000000000     
  -1.1724999999999999          0.0000000000000000     
  -1.1723999999999999          0.0000000000000000     
  -1.1722999999999999          0.0000000000000000     
  -1.1721999999999999          0.0000000000000000     
  -1.1720999999999999          0.0000000000000000     
  -1.1719999999999999          0.0000000000000000     
  -1.1718999999999999          0.0000000000000000     
  -1.1718000000000000          0.0000000000000000     
  -1.1717000000000000          0.0000000000000000     
  -1.1716000000000000          0.0000000000000000     
  -1.1715000000000000          0.0000000000000000     
  -1.1714000000000000          0.0000000000000000     
  -1.1713000000000000          0.0000000000000000     
  -1.1712000000000000          0.0000000000000000     
  -1.1711000000000000          0.0000000000000000     
  -1.1710000000000000          0.0000000000000000     
  -1.1709000000000001          0.0000000000000000     
  -1.1708000000000001          0.0000000000000000     
  -1.1706999999999999          0.0000000000000000     
  -1.1705999999999999          0.0000000000000000     
  -1.1704999999999999          0.0000000000000000     
  -1.1703999999999999          0.0000000000000000     
  -1.1702999999999999          0.0000000000000000     
  -1.1701999999999999          0.0000000000000000     
  -1.1700999999999999          0.0000000000000000     
  -1.1699999999999999          0.0000000000000000     
  -1.1698999999999999          0.0000000000000000     
  -1.1698000000000000          0.0000000000000000     
  -1.1697000000000000          0.0000000000000000     
  -1.1696000000000000          0.0000000000000000     
  -1.1695000000000000          0.0000000000000000     
  -1.1694000000000000          0.0000000000000000     
  -1.1693000000000000          0.0000000000000000     
  -1.1692000000000000          0.0000000000000000     
  -1.1691000000000000          0.0000000000000000     
  -1.1690000000000000          0.0000000000000000     
  -1.1689000000000001          0.0000000000000000     
  -1.1688000000000001          0.0000000000000000     
  -1.1686999999999999          0.0000000000000000     
  -1.1685999999999999          0.0000000000000000     
  -1.1684999999999999          0.0000000000000000     
  -1.1683999999999999          0.0000000000000000     
  -1.1682999999999999          0.0000000000000000     
  -1.1681999999999999          0.0000000000000000     
  -1.1680999999999999          0.0000000000000000     
  -1.1679999999999999          0.0000000000000000     
  -1.1678999999999999          0.0000000000000000     
  -1.1677999999999999          0.0000000000000000     
  -1.1677000000000000          0.0000000000000000     
  -1.1676000000000000          0.0000000000000000     
  -1.1675000000000000          0.0000000000000000     
  -1.1674000000000000          0.0000000000000000     
  -1.1673000000000000          0.0000000000000000     
  -1.1672000000000000          0.0000000000000000     
  -1.1671000000000000          0.0000000000000000     
  -1.1670000000000000          0.0000000000000000     
  -1.1669000000000000          0.0000000000000000     
  -1.1668000000000001          0.0000000000000000     
  -1.1666999999999998          0.0000000000000000     
  -1.1665999999999999          0.0000000000000000     
  -1.1664999999999999          0.0000000000000000     
  -1.1663999999999999          0.0000000000000000     
  -1.1662999999999999          0.0000000000000000     
  -1.1661999999999999          0.0000000000000000     
  -1.1660999999999999          0.0000000000000000     
  -1.1659999999999999          0.0000000000000000     
  -1.1658999999999999          0.0000000000000000     
  -1.1657999999999999          0.0000000000000000     
  -1.1657000000000000          0.0000000000000000     
  -1.1656000000000000          0.0000000000000000     
  -1.1655000000000000          0.0000000000000000     
  -1.1654000000000000          0.0000000000000000     
  -1.1653000000000000          0.0000000000000000     
  -1.1652000000000000          0.0000000000000000     
  -1.1651000000000000          0.0000000000000000     
  -1.1650000000000000          0.0000000000000000     
  -1.1649000000000000          0.0000000000000000     
  -1.1648000000000001          0.0000000000000000     
  -1.1646999999999998          0.0000000000000000     
  -1.1645999999999999          0.0000000000000000     
  -1.1644999999999999          0.0000000000000000     
  -1.1643999999999999          0.0000000000000000     
  -1.1642999999999999          0.0000000000000000     
  -1.1641999999999999          0.0000000000000000     
  -1.1640999999999999          0.0000000000000000     
  -1.1639999999999999          0.0000000000000000     
  -1.1638999999999999          0.0000000000000000     
  -1.1637999999999999          0.0000000000000000     
  -1.1637000000000000          0.0000000000000000     
  -1.1636000000000000          0.0000000000000000     
  -1.1635000000000000          0.0000000000000000     
  -1.1634000000000000          0.0000000000000000     
  -1.1633000000000000          0.0000000000000000     
  -1.1632000000000000          0.0000000000000000     
  -1.1631000000000000          0.0000000000000000     
  -1.1630000000000000          0.0000000000000000     
  -1.1629000000000000          0.0000000000000000     
  -1.1628000000000001          0.0000000000000000     
  -1.1627000000000001          0.0000000000000000     
  -1.1625999999999999          0.0000000000000000     
  -1.1624999999999999          0.0000000000000000     
  -1.1623999999999999          0.0000000000000000     
  -1.1622999999999999          0.0000000000000000     
  -1.1621999999999999          0.0000000000000000     
  -1.1620999999999999          0.0000000000000000     
  -1.1619999999999999          0.0000000000000000     
  -1.1618999999999999          0.0000000000000000     
  -1.1617999999999999          0.0000000000000000     
  -1.1617000000000000          0.0000000000000000     
  -1.1616000000000000          0.0000000000000000     
  -1.1615000000000000          0.0000000000000000     
  -1.1614000000000000          0.0000000000000000     
  -1.1613000000000000          0.0000000000000000     
  -1.1612000000000000          0.0000000000000000     
  -1.1611000000000000          0.0000000000000000     
  -1.1610000000000000          0.0000000000000000     
  -1.1609000000000000          0.0000000000000000     
  -1.1608000000000001          0.0000000000000000     
  -1.1606999999999998          0.0000000000000000     
  -1.1605999999999999          0.0000000000000000     
  -1.1604999999999999          0.0000000000000000     
  -1.1603999999999999          0.0000000000000000     
  -1.1602999999999999          0.0000000000000000     
  -1.1601999999999999          0.0000000000000000     
  -1.1600999999999999          0.0000000000000000     
  -1.1599999999999999          0.0000000000000000     
  -1.1598999999999999          0.0000000000000000     
  -1.1597999999999999          0.0000000000000000     
  -1.1597000000000000          0.0000000000000000     
  -1.1596000000000000          0.0000000000000000     
  -1.1595000000000000         -5.4900715476510527E-029
  -1.1594000000000000         -7.5526468234456705E-029
  -1.1593000000000000         -9.4867108125824043E-029
  -1.1592000000000000         -1.1083599237089727E-028
  -1.1591000000000000         -1.7942443640691371E-028
  -1.1590000000000000         -1.8440203845936898E-028
  -1.1589000000000000         -1.8792587636742784E-028
  -1.1588000000000001         -7.8760772668032334E-029
  -1.1587000000000001          7.1169551273359910E-029
  -1.1585999999999999          1.5428054227740122E-028
  -1.1584999999999999          2.3830051202988254E-028
  -1.1583999999999999          3.2226287240290238E-028
  -1.1582999999999999          4.0325631547015207E-028
  -1.1581999999999999          5.6677850480806835E-028
  -1.1580999999999999          6.3178350340424714E-028
  -1.1579999999999999          7.0683930445295099E-028
  -1.1578999999999999          8.3681906454518168E-028
  -1.1577999999999999          8.2447568323510667E-028
  -1.1577000000000000          7.2329570175225938E-028
  -1.1576000000000000          5.2769782326605422E-028
  -1.1575000000000000          2.8616213411559000E-028
  -1.1574000000000000          0.0000000000000000     
  -1.1573000000000000         -4.4807983121683728E-028
  -1.1572000000000000         -9.3001779974549382E-028
  -1.1571000000000000         -1.4685621234205967E-027
  -1.1570000000000000         -2.0332710720586751E-027
  -1.1569000000000000         -2.5979566206479293E-027
  -1.1568000000000001         -3.1292007068688323E-027
  -1.1566999999999998         -3.5477867506208262E-027
  -1.1565999999999999         -3.8432640782466826E-027
  -1.1564999999999999         -3.9640668784504053E-027
  -1.1563999999999999         -3.7403905302672384E-027
  -1.1562999999999999         -3.2501816555924109E-027
  -1.1561999999999999         -2.4041791792934075E-027
  -1.1560999999999999         -1.1709296801869710E-027
  -1.1559999999999999          4.6179750798697842E-028
  -1.1558999999999999          2.4814607775788397E-027
  -1.1557999999999999          4.8456389697063077E-027
  -1.1556999999999999          7.4775732316191054E-027
  -1.1556000000000000          1.0260501941915818E-026
  -1.1555000000000000          1.3040198941765849E-026
  -1.1554000000000000          1.5621435023822597E-026
  -1.1553000000000000          1.7768355414492557E-026
  -1.1552000000000000          1.9237416257472253E-026
  -1.1551000000000000          1.9735319992646885E-026
  -1.1550000000000000          1.8986711023263567E-026
  -1.1549000000000000          1.6726502811032883E-026
  -1.1548000000000000          1.2727235325802923E-026
  -1.1547000000000001          6.8246020914141682E-027
  -1.1545999999999998         -1.0559506995420808E-027
  -1.1544999999999999         -1.0871329883077674E-026
  -1.1543999999999999         -2.2434558572768217E-026
  -1.1542999999999999         -3.5391643622598046E-026
  -1.1541999999999999         -4.9204696680631115E-026
  -1.1540999999999999         -6.3142953673976821E-026
  -1.1539999999999999         -7.6285308562224835E-026
  -1.1538999999999999         -8.7535703828816693E-026
  -1.1537999999999999         -9.5656607765711111E-026
  -1.1536999999999999         -9.9314173678719977E-026
  -1.1536000000000000         -9.7149483888011122E-026
  -1.1535000000000000         -8.7862064213472777E-026
  -1.1534000000000000         -7.0311961343254003E-026
  -1.1533000000000000         -4.3636146039603459E-026
  -1.1532000000000000         -7.3731855175173840E-027
  -1.1531000000000000          3.8408192257380797E-026
  -1.1530000000000000          9.2985697303955782E-026
  -1.1529000000000000          1.5487348699606447E-025
  -1.1528000000000000          2.2173770710114675E-025
  -1.1527000000000001          2.9034693683238449E-025
  -1.1525999999999998          3.5657195773710816E-025
  -1.1524999999999999          4.1544319263145827E-025
  -1.1523999999999999          4.6127788476944895E-025
  -1.1522999999999999          4.8788483189977612E-025
  -1.1521999999999999          4.8884921435640881E-025
  -1.1520999999999999          4.5790037680374519E-025
  -1.1519999999999999          3.8935733743283615E-025
  -1.1518999999999999          2.7863728277051009E-025
  -1.1517999999999999          1.2281473447570653E-025
  -1.1516999999999999         -7.8798015434628419E-026
  -1.1516000000000000         -3.2407951660815332E-025
  -1.1515000000000000         -6.0757702071953665E-025
  -1.1514000000000000         -9.2007746439753294E-025
  -1.1513000000000000         -1.2483216981990907E-024
  -1.1512000000000000         -1.5749095213149107E-024
  -1.1511000000000000         -1.8784564923262617E-024
  -1.1510000000000000         -2.1340288873865968E-024
  -1.1509000000000000         -2.3139157978325387E-024
  -1.1508000000000000         -2.3887491154540669E-024
  -1.1507000000000001         -2.3289899436551807E-024
  -1.1505999999999998         -2.1067625018433114E-024
  -1.1504999999999999         -1.6979976577240345E-024
  -1.1503999999999999         -1.0848359948335989E-024
  -1.1502999999999999         -2.5816745161567280E-025
  -1.1501999999999999          7.7977007214924487E-025
  -1.1500999999999999          2.0129637847689123E-024
  -1.1499999999999999          3.4094659042656231E-024
  -1.1498999999999999          4.9197578566816176E-024
  -1.1497999999999999          6.4758569897115333E-024
  -1.1496999999999999          7.9913392524534295E-024
  -1.1496000000000000          9.3625333336040662E-024
  -1.1495000000000000          1.0471033577872485E-023
  -1.1494000000000000          1.1187710554822153E-023
  -1.1493000000000000          1.1378222830015743E-023
  -1.1492000000000000          1.0910157733929193E-023
  -1.1491000000000000          9.6615494820062802E-024
  -1.1490000000000000          7.5307281030603121E-024
  -1.1489000000000000          4.4470266483406845E-024
  -1.1488000000000000          3.8209533045840440E-025
  -1.1487000000000001         -4.6390858797694130E-024
  -1.1486000000000001         -1.0527690356946363E-023
  -1.1484999999999999         -1.7122415274439314E-023
  -1.1483999999999999         -2.4183105340289118E-023
  -1.1482999999999999         -3.1387740433236410E-023
  -1.1481999999999999         -3.8333973092625886E-023
  -1.1480999999999999         -4.4545359730696644E-023
  -1.1479999999999999         -4.9483755215125013E-023
  -1.1478999999999999         -5.2567977318042087E-023
  -1.1477999999999999         -5.3199006088790099E-023
  -1.1476999999999999         -5.0791850679049737E-023
  -1.1476000000000000         -4.4813269515884183E-023
  -1.1475000000000000         -3.4824665402321418E-023
  -1.1474000000000000         -2.0528828681432185E-023
  -1.1473000000000000         -1.8179524386176205E-024
  -1.1472000000000000          2.1179045704838793E-023
  -1.1471000000000000          4.8052632159865642E-023
  -1.1470000000000000          7.8076454176080268E-023
  -1.1469000000000000          1.1018127548304982E-022
  -1.1468000000000000          1.4294404465029715E-022
  -1.1467000000000001          1.7459479762022148E-022
  -1.1465999999999998          2.0304527442629625E-022
  -1.1464999999999999          2.2594203162009578E-022
  -1.1463999999999999          2.4074623712958021E-022
  -1.1462999999999999          2.4484091747688212E-022
  -1.1461999999999999          2.3566516510638995E-022
  -1.1460999999999999          2.1087337469163230E-022
  -1.1459999999999999          1.6851575975394146E-022
  -1.1458999999999999          1.0723304353386199E-022
  -1.1457999999999999          2.6459316150650034E-023
  -1.1456999999999999         -7.3378352034269461E-023
  -1.1456000000000000         -1.9067650341228255E-022