   0.00000000       0.00000000    
   1.00000005E-03   0.00000000    
   2.00000009E-03   0.00000000    
   3.00000003E-03   0.00000000    
   4.00000019E-03   0.00000000    
   4.99999989E-03   0.00000000    
   6.00000005E-03   0.00000000    
   7.00000022E-03   0.00000000    
   8.00000038E-03   0.00000000    
   8.99999961E-03   0.00000000    
   9.99999978E-03   0.00000000    
   1.09999999E-02   0.00000000    
   1.20000001E-02   0.00000000    
   1.30000003E-02   3.85947058E-37
   1.40000004E-02   5.30522899E-37
   1.49999997E-02  -1.81077321E-36
   1.60000008E-02  -1.33144222E-35
   1.70000009E-02  -4.94585058E-35
   1.79999992E-02  -1.36360972E-34
   1.89999994E-02  -3.19447409E-34
   1.99999996E-02  -6.51064903E-34
   2.09999997E-02  -1.13577890E-33
   2.19999999E-02  -1.55707965E-33
   2.30000000E-02  -9.56730352E-34
   2.40000002E-02   3.45407738E-33
   2.50000004E-02   1.85061661E-32
   2.60000005E-02   5.92995346E-32
   2.70000007E-02   1.56656675E-31
   2.80000009E-02   3.69674753E-31
   2.89999992E-02   8.05829589E-31
   2.99999993E-02   1.65127936E-30
   3.09999995E-02   3.21417922E-30
   3.20000015E-02   5.98343251E-30
   3.29999998E-02   1.07032804E-29
   3.40000018E-02   1.84603515E-29
   3.50000001E-02   3.07738177E-29
   3.59999985E-02   4.96702027E-29
   3.70000005E-02   7.77117668E-29
   3.79999988E-02   1.17931479E-28
   3.90000008E-02   1.73609392E-28
   3.99999991E-02   2.47806661E-28
   4.10000011E-02   3.42558081E-28
   4.19999994E-02   4.57617036E-28
   4.30000015E-02   5.88656058E-28
   4.39999998E-02   7.24859653E-28
   4.50000018E-02   8.45914076E-28
   4.60000001E-02   9.18512679E-28
   4.69999984E-02   8.92661885E-28
   4.80000004E-02   6.98296457E-28
   4.89999987E-02   2.42992053E-28
   5.00000007E-02  -5.88115449E-28
   5.09999990E-02  -1.92876299E-27
   5.20000011E-02  -3.92260007E-27
   5.29999994E-02  -6.70688155E-27
   5.40000014E-02  -1.03868429E-26
   5.49999997E-02  -1.49990330E-26
   5.60000017E-02  -2.04625527E-26
   5.70000000E-02  -2.65182958E-26
   5.79999983E-02  -3.26581112E-26
   5.90000004E-02  -3.80482128E-26
   5.99999987E-02  -4.14543663E-26
   6.10000007E-02  -4.11800831E-26
   6.19999990E-02  -3.50331803E-26
   6.30000010E-02  -2.03402361E-26
   6.40000030E-02   5.96783059E-27
   6.49999976E-02   4.71734137E-26
   6.59999996E-02   1.06466960E-25
   6.70000017E-02   1.86495137E-25
   6.80000037E-02   2.88745525E-25
   6.89999983E-02   4.12762545E-25
   7.00000003E-02   5.55206813E-25
   7.10000023E-02   7.08793989E-25
   7.19999969E-02   8.61179827E-25
   7.29999989E-02   9.93892856E-25
   7.40000010E-02   1.08145701E-24
   7.50000030E-02   1.09088537E-24
   7.59999976E-02   9.81765007E-25
   7.69999996E-02   7.07180571E-25
   7.80000016E-02   2.15739233E-25
   7.90000036E-02  -5.45048208E-25
   7.99999982E-02  -1.62381318E-24
   8.10000002E-02  -3.05866045E-24
   8.20000023E-02  -4.86875563E-24
   8.29999968E-02  -7.04431410E-24
   8.39999989E-02  -9.53534041E-24
   8.50000009E-02  -1.22397244E-23
   8.60000029E-02  -1.49916057E-23
   8.69999975E-02  -1.75512038E-23
   8.79999995E-02  -1.95976525E-23
   8.90000015E-02  -2.07266103E-23
   9.00000036E-02  -2.04546395E-23
   9.09999982E-02  -1.82324388E-23
   9.20000002E-02  -1.34689038E-23
   9.30000022E-02  -5.56772663E-24
   9.39999968E-02   6.02229510E-24
   9.49999988E-02   2.17428998E-23
   9.60000008E-02   4.18487397E-23
   9.70000029E-02   6.63186591E-23
   9.79999974E-02   9.47597705E-23
   9.89999995E-02   1.26310073E-22
  0.100000001       1.59547270E-22
  0.101000004       1.92413563E-22
  0.101999998       2.22167566E-22
  0.103000000       2.45376131E-22
  0.104000002       2.57959207E-22
  0.104999997       2.55300632E-22
  0.105999999       2.32436338E-22
  0.107000001       1.84328445E-22
  0.108000003       1.06229612E-22
  0.108999997      -5.86389972E-24
  0.109999999      -1.54679808E-22
  0.111000001      -3.41075788E-22
  0.112000003      -5.63411779E-22
  0.112999998      -8.16926834E-22
  0.114000000      -1.09316886E-21
  0.115000002      -1.37953481E-21
  0.115999997      -1.65898705E-21
  0.116999999      -1.91001456E-21
  0.118000001      -2.10690758E-21
  0.119000003      -2.22041186E-21
  0.119999997      -2.21881344E-21
  0.120999999      -2.06948957E-21
  0.122000001      -1.74093529E-21
  0.123000003      -1.20524153E-21
  0.123999998      -4.40964916E-22
  0.125000000       5.63716974E-22
  0.126000002       1.80771679E-21
  0.127000004       3.27381123E-21
  0.128000006       4.92572282E-21
  0.128999993       6.70578278E-21
  0.129999995       8.53348116E-21
  0.130999997       1.03052116E-20
  0.131999999       1.18955139E-20
  0.133000001       1.31600760E-20
  0.134000003       1.39406962E-20
  0.135000005       1.40723181E-20
  0.136000007       1.33921292E-20
  0.136999995       1.17505748E-20
  0.137999997       9.02396937E-21
  0.138999999       5.12820557E-21
  0.140000001       3.28879014E-23
  0.141000003      -6.22496143E-21
  0.142000005      -1.35286334E-20
  0.143000007      -2.16720206E-20
  0.143999994      -3.03536414E-20
  0.144999996      -3.91755808E-20
  0.145999998      -4.76484306E-20
  0.147000000      -5.52031389E-20
  0.148000002      -6.12103895E-20
  0.149000004      -6.50077301E-20
  0.150000006      -6.59342758E-20
  0.150999993      -6.33721550E-20
  0.151999995      -5.67933032E-20
  0.152999997      -4.58096307E-20
  0.153999999      -3.02238580E-20
  0.155000001      -1.00778459E-20
  0.156000003       1.43052421E-20
  0.157000005       4.22888915E-20
  0.158000007       7.29053340E-20
  0.158999994       1.04855625E-19
  0.159999996       1.36531097E-19
  0.160999998       1.66058679E-19
  0.162000000       1.91371673E-19
  0.163000003       2.10305837E-19
  0.164000005       2.20719214E-19
  0.165000007       2.20632127E-19
  0.165999994       2.08381556E-19
  0.166999996       1.82782552E-19
  0.167999998       1.43286940E-19
  0.169000000       9.01283588E-20
  0.170000002       2.44414067E-20
  0.171000004      -5.16578299E-20
  0.172000006      -1.35042327E-19
  0.172999993      -2.21606959E-19
  0.173999995      -3.06372965E-19
  0.174999997      -3.83669762E-19
  0.175999999      -4.47396454E-19
  0.177000001      -4.91359501E-19
  0.178000003      -5.09678088E-19
  0.179000005      -4.97241737E-19
  0.180000007      -4.50199304E-19
  0.180999994      -3.66451816E-19
  0.181999996      -2.46116321E-19
  0.182999998      -9.19240645E-20
  0.184000000       9.04861338E-20
  0.185000002       2.92418893E-19
  0.186000004       5.02154777E-19
  0.187000006       7.05196184E-19
  0.187999994       8.84750212E-19
  0.188999996       1.02246100E-18
  0.189999998       1.09938952E-18
  0.191000000       1.09722210E-18
  0.192000002       9.99670931E-19
  0.193000004       7.94009636E-19
  0.194000006       4.72668683E-19
  0.194999993       3.47963347E-20
  0.195999995      -5.12324032E-19
  0.196999997      -1.15211856E-18
  0.197999999      -1.85795519E-18
  0.199000001      -2.59288738E-18
  0.200000003      -3.31002009E-18
  0.201000005      -3.95359411E-18
  0.202000007      -4.46085435E-18
  0.202999994      -4.76472742E-18
  0.203999996      -4.79729807E-18
  0.204999998      -4.49400982E-18
  0.206000000      -3.79846218E-18
  0.207000002      -2.66762232E-18
  0.208000004      -1.07720257E-18
  0.209000006       9.73094652E-19
  0.209999993       3.45480751E-18
  0.210999995       6.30679805E-18
  0.211999997       9.43257627E-18
  0.213000000       1.26992498E-17
  0.214000002       1.59384519E-17
  0.215000004       1.89495498E-17
  0.216000006       2.15053360E-17
  0.216999993       2.33603183E-17
  0.217999995       2.42615713E-17
  0.218999997       2.39619698E-17
  0.219999999       2.22354437E-17
  0.221000001       1.88937416E-17
  0.222000003       1.38039818E-17
  0.223000005       6.90614913E-18
  0.224000007      -1.77048663E-18
  0.224999994      -1.20931076E-17
  0.225999996      -2.38144091E-17
  0.226999998      -3.65661476E-17
  0.228000000      -4.98582486E-17
  0.229000002      -6.30844463E-17
  0.230000004      -7.55351822E-17
  0.231000006      -8.64182188E-17
  0.231999993      -9.48870726E-17
  0.232999995      -1.00076963E-16
  0.233999997      -1.01147493E-16
  0.234999999      -9.73308354E-17
  0.236000001      -8.79836680E-17
  0.237000003      -7.26406588E-17
  0.238000005      -5.10669216E-17
  0.238999993      -2.33064937E-17
  0.239999995       1.02763394E-17
  0.240999997       4.89660780E-17
  0.241999999       9.16785184E-17
  0.243000001       1.36959656E-16
  0.244000003       1.83003427E-16
  0.245000005       2.27690053E-16
  0.246000007       2.68645870E-16
  0.246999994       3.03324775E-16
  0.247999996       3.29109914E-16
  0.248999998       3.43433426E-16
  0.250000000       3.43910517E-16
  0.250999987       3.28483030E-16
  0.252000004       2.95566535E-16
  0.252999991       2.44193961E-16
  0.254000008       1.74148015E-16
  0.254999995       8.60744624E-17
  0.256000012      -1.84323501E-17
  0.256999999      -1.36779145E-16
  0.257999986      -2.65365999E-16
  0.259000003      -3.99626942E-16
  0.259999990      -5.34122989E-16
  0.261000007      -6.62689514E-16
  0.261999995      -7.78638213E-16
  0.263000011      -8.75009175E-16
  0.263999999      -9.44868111E-16
  0.264999986      -9.81639082E-16
  0.266000003      -9.79460725E-16
  0.266999990      -9.33551328E-16
  0.268000007      -8.40566486E-16
  0.268999994      -6.98930507E-16
  0.270000011      -5.09122335E-16
  0.270999998      -2.73897236E-16
  0.272000015       1.57419750E-18
  0.273000002       3.09666034E-16
  0.273999989       6.40369084E-16
  0.275000006       9.81484499E-16
  0.275999993       1.31894242E-15
  0.277000010       1.63724587E-15
  0.277999997       1.92003036E-15
  0.279000014       2.15072761E-15
  0.280000001       2.31331008E-15
  0.280999988       2.39309169E-15
  0.282000005       2.37755224E-15
  0.282999992       2.25714735E-15
  0.284000009       2.02606512E-15
  0.284999996       1.68288834E-15
  0.286000013       1.23111951E-15
  0.287000000       6.79530117E-16
  0.287999988       4.23006401E-17
  0.289000005      -6.61077610E-16
  0.289999992      -1.40615813E-15
  0.291000009      -2.16416156E-15
  0.291999996      -2.90286090E-15
  0.293000013      -3.58771477E-15
  0.294000000      -4.18322002E-15
  0.294999987      -4.65443969E-15
  0.296000004      -4.96865334E-15
  0.296999991      -5.09706396E-15
  0.298000008      -5.01648529E-15
  0.298999995      -4.71092917E-15
  0.300000012      -4.17301073E-15
  0.300999999      -3.40508748E-15
  0.301999986      -2.42005317E-15
  0.303000003      -1.24172140E-15
  0.303999990       9.52598663E-17
  0.305000007       1.54600072E-15
  0.305999994       3.05648536E-15
  0.307000011       4.56520731E-15
  0.307999998       6.00529504E-15
  0.308999985       7.30706948E-15
  0.310000002       8.40095578E-15
  0.310999990       9.22064481E-15
  0.312000006       9.70637755E-15
  0.312999994       9.80821039E-15
  0.314000010       9.48911360E-15
  0.314999998       8.72774024E-15
  0.316000015       7.52071237E-15
  0.317000002       5.88428029E-15
  0.317999989       3.85522133E-15
  0.319000006       1.49088387E-15
  0.319999993      -1.13170600E-15
  0.321000010      -3.91770356E-15
  0.321999997      -6.75726293E-15
  0.323000014      -9.52926381E-15
  0.324000001      -1.21058440E-14
  0.324999988      -1.43575998E-14
  0.326000005      -1.61592626E-14
  0.326999992      -1.73956342E-14
  0.328000009      -1.79675221E-14
  0.328999996      -1.77974175E-14
  0.330000013      -1.68346291E-14
  0.331000000      -1.50595936E-14
  0.331999987      -1.24871147E-14
  0.333000004      -9.16830495E-15
  0.333999991      -5.19103718E-15
  0.335000008      -6.78780652E-16
  0.335999995       4.21223725E-15
  0.337000012       9.29753846E-15
  0.338000000       1.43704967E-14
  0.338999987       1.92098517E-14
  0.340000004       2.35884192E-14
  0.340999991       2.72826670E-14
  0.342000008       3.00828020E-14
  0.342999995       3.18029396E-14
  0.344000012       3.22909119E-14
  0.344999999       3.14372518E-14
  0.345999986       2.91828905E-14
  0.347000003       2.55251464E-14
  0.347999990       2.05216161E-14
  0.349000007       1.42916735E-14
  0.349999994       7.01535091E-15
  0.351000011      -1.07052683E-15
  0.351999998      -9.67892352E-15
  0.352999985      -1.84817998E-14
  0.354000002      -2.71216833E-14
  0.354999989      -3.52252305E-14
  0.356000006      -4.24182987E-14
  0.356999993      -4.83419762E-14
  0.358000010      -5.26688847E-14
  0.358999997      -5.51190732E-14
  0.360000014      -5.54747729E-14
  0.361000001      -5.35933128E-14
  0.361999989      -4.94175013E-14
  0.363000005      -4.29829071E-14
  0.363999993      -3.44215284E-14
  0.365000010      -2.39615118E-14
  0.365999997      -1.19227070E-14
  0.367000014       1.29193743E-15
  0.368000001       1.52090170E-14
  0.368999988       2.93009737E-14
  0.370000005       4.30055466E-14
  0.370999992       5.57476632E-14
  0.372000009       6.69629689E-14
  0.372999996       7.61220378E-14
  0.374000013       8.27542177E-14
  0.375000000       8.64700970E-14
  0.375999987       8.69815423E-14
  0.377000004       8.41183405E-14
  0.377999991       7.78405592E-14
  0.379000008       6.82459053E-14
  0.379999995       5.55715650E-14
  0.381000012       4.01902260E-14
  0.381999999       2.26001909E-14
  0.382999986       3.40976501E-15
  0.384000003      -1.66836014E-14
  0.384999990      -3.69187408E-14
  0.386000007      -5.64998589E-14
  0.386999995      -7.46281495E-14
  0.388000011      -9.05346626E-14
  0.388999999      -1.03513091E-13
  0.389999986      -1.12951057E-13
  0.391000003      -1.18358475E-13
  0.391999990      -1.19391720E-13
  0.393000007      -1.15872440E-13
  0.393999994      -1.07799972E-13
  0.395000011      -9.53567601E-14
  0.395999998      -7.89062012E-14
  0.397000015      -5.89829021E-14
  0.398000002      -3.62755311E-14
  0.398999989      -1.16027454E-14
  0.400000006       1.41168781E-14
  0.400999993       3.98998258E-14
  0.402000010       6.47361532E-14
  0.402999997       8.76299765E-14
  0.404000014       1.07640222E-13
  0.405000001       1.23919999E-13
  0.405999988       1.35752818E-13
  0.407000005       1.42584105E-13
  0.407999992       1.44046572E-13
  0.409000009       1.39978320E-13
  0.409999996       1.30432747E-13
  0.411000013       1.15679764E-13
  0.412000000       9.61982027E-14
  0.412999988       7.26595230E-14
  0.414000005       4.59035309E-14
  0.414999992       1.69070419E-14
  0.416000009      -1.32532907E-14
  0.416999996      -4.34424090E-14
  0.418000013      -7.25108653E-14
  0.419000000      -9.93395429E-14
  0.419999987      -1.22883244E-13
  0.421000004      -1.42211343E-13
  0.421999991      -1.56543818E-13
  0.423000008      -1.65281187E-13
  0.423999995      -1.68027159E-13
  0.425000012      -1.64603167E-13
  0.425999999      -1.55054246E-13
  0.426999986      -1.39646175E-13
  0.428000003      -1.18854172E-13
  0.428999990      -9.33437762E-14
  0.430000007      -6.39447940E-14
  0.430999994      -3.16197806E-14
  0.432000011       2.57169198E-15
  0.432999998       3.75112878E-14
  0.433999985       7.20610163E-14
  0.435000002       1.05101603E-13
  0.435999990       1.35568585E-13
  0.437000006       1.62484812E-13
  0.437999994       1.84988255E-13
  0.439000010       2.02354287E-13
  0.439999998       2.14012049E-13
  0.441000015       2.19554640E-13
  0.442000002       2.18743345E-13
  0.442999989       2.11506458E-13
  0.444000006       1.97933290E-13
  0.444999993       1.78264345E-13
  0.446000010       1.52878700E-13
  0.446999997       1.22279641E-13
  0.448000014       8.70796490E-14
  0.449000001       4.79855955E-14
  0.449999988       5.78495381E-15
  0.451000005      -3.86664916E-14
  0.451999992      -8.44551886E-14
  0.453000009      -1.30618674E-13
  0.453999996      -1.76153105E-13
  0.455000013      -2.20020061E-13
  0.456000000      -2.61153512E-13
  0.456999987      -2.98467929E-13
  0.458000004      -3.30868525E-13
  0.458999991      -3.57264836E-13
  0.460000008      -3.76588436E-13
  0.460999995      -3.87815621E-13
  0.462000012      -3.89995301E-13
  0.463000000      -3.82282151E-13
  0.463999987      -3.63974611E-13
  0.465000004      -3.34556737E-13
  0.465999991      -2.93742352E-13
  0.467000008      -2.41519641E-13
  0.467999995      -1.78193831E-13
  0.469000012      -1.04425176E-13
  0.469999999      -2.12594631E-14
  0.470999986       6.98519340E-14
  0.472000003       1.67045319E-13
  0.472999990       2.68053754E-13
  0.474000007       3.70234008E-13
  0.474999994       4.70612807E-13
  0.476000011       5.65952829E-13
  0.476999998       6.52838515E-13
  0.477999985       7.27779870E-13
  0.479000002       7.87332114E-13
  0.479999989       8.28227786E-13
  0.481000006       8.47516610E-13
  0.481999993       8.42708119E-13
  0.483000010       8.11910868E-13
  0.483999997       7.53961780E-13
  0.485000014       6.68539009E-13
  0.486000001       5.56251985E-13
  0.486999989       4.18702399E-13
  0.488000005       2.58510769E-13
  0.488999993       7.93044490E-14
  0.490000010      -1.14335679E-13
  0.490999997      -3.16971330E-13
  0.492000014      -5.22445043E-13
  0.493000001      -7.24058075E-13
  0.493999988      -9.14783765E-13
  0.495000005      -1.08750964E-12
  0.495999992      -1.23530103E-12
  0.497000009      -1.35167582E-12
  0.497999996      -1.43088026E-12
  0.499000013      -1.46815437E-12
  0.500000000      -1.45997504E-12
  0.500999987      -1.40426505E-12
  0.501999974      -1.30055775E-12
  0.503000021      -1.15010757E-12
  0.504000008      -9.55938345E-13
  0.504999995      -7.22823873E-13
  0.505999982      -4.57197756E-13
  0.507000029      -1.66992478E-13
  0.508000016       1.38590108E-13
  0.509000003       4.49370792E-13
  0.509999990       7.54538576E-13
  0.510999978       1.04303870E-12
  0.512000024       1.30398860E-12
  0.513000011       1.52710700E-12
  0.513999999       1.70313850E-12
  0.514999986       1.82425602E-12
  0.515999973       1.88442339E-12
  0.517000020       1.87970234E-12
  0.518000007       1.80848760E-12
  0.518999994       1.67165793E-12
  0.519999981       1.47263408E-12
  0.521000028       1.21733634E-12
  0.522000015       9.14039894E-13
  0.523000002       5.73130139E-13
  0.523999989       2.06763819E-13
  0.524999976      -1.71553350E-13
  0.526000023      -5.47458400E-13
  0.527000010      -9.06274513E-13
  0.527999997      -1.23358572E-12
  0.528999984      -1.51582056E-12
  0.529999971      -1.74082005E-12
  0.531000018      -1.89836753E-12
  0.532000005      -1.98065674E-12
  0.532999992      -1.98267683E-12
  0.533999979      -1.90249617E-12
  0.535000026      -1.74143078E-12
  0.536000013      -1.50408570E-12
  0.537000000      -1.19826447E-12
  0.537999988      -8.34747690E-13
  0.538999975      -4.26944314E-13
  0.540000021       9.57278690E-15
  0.541000009       4.57631220E-13
  0.541999996       8.99103383E-13
  0.542999983       1.31560604E-12
  0.544000030       1.68922916E-12
  0.545000017       2.00326387E-12
  0.546000004       2.24290118E-12
  0.546999991       2.39587191E-12
  0.547999978       2.45300048E-12
  0.549000025       2.40864902E-12
  0.550000012       2.26103121E-12
  0.550999999       2.01237941E-12
  0.551999986       1.66895707E-12
  0.552999973       1.24091265E-12
  0.554000020       7.41976250E-13
  0.555000007       1.89009832E-13
  0.555999994      -3.98574186E-13
  0.556999981      -9.99505491E-13
  0.558000028      -1.59143326E-12
  0.559000015      -2.15175924E-12
  0.560000002      -2.65849474E-12
  0.560999990      -3.09110723E-12
  0.561999977      -3.43132402E-12
  0.563000023      -3.66386088E-12
  0.564000010      -3.77704508E-12
  0.564999998      -3.76330868E-12
  0.565999985      -3.61953197E-12
  0.566999972      -3.34722050E-12
  0.568000019      -2.95250911E-12
  0.569000006      -2.44599133E-12
  0.569999993      -1.84237911E-12
  0.570999980      -1.16000709E-12
  0.572000027      -4.20197595E-13
  0.573000014       3.53488750E-13
  0.574000001       1.13608732E-12
  0.574999988       1.90211714E-12
  0.575999975       2.62648887E-12
  0.577000022       3.28539713E-12
  0.578000009       3.85716372E-12
  0.578999996       4.32300029E-12
  0.579999983       4.66766036E-12
  0.580999970       4.87995798E-12
  0.582000017       4.95313426E-12
  0.583000004       4.88505894E-12
  0.583999991       4.67826125E-12
  0.584999979       4.33978938E-12
  0.586000025       3.88090818E-12
  0.587000012       3.31664795E-12
  0.588000000       2.66522394E-12
  0.588999987       1.94734983E-12
  0.589999974       1.18547294E-12
  0.591000021       4.02964039E-13
  0.592000008      -3.76709704E-13
  0.592999995      -1.13079533E-12
  0.593999982      -1.83801802E-12
  0.595000029      -2.47927069E-12
  0.596000016      -3.03820424E-12
  0.597000003      -3.50170132E-12
  0.597999990      -3.86021380E-12
  0.598999977      -4.10796050E-12
  0.600000024      -4.24297923E-12
  0.601000011      -4.26703508E-12
  0.601999998      -4.18539465E-12
  0.602999985      -4.00647961E-12
  0.603999972      -3.74141690E-12
  0.605000019      -3.40350751E-12
  0.606000006      -3.00763429E-12
  0.606999993      -2.56963938E-12
  0.607999980      -2.10569279E-12
  0.609000027      -1.63167917E-12
  0.610000014      -1.16262523E-12
  0.611000001      -7.12188284E-13
  0.611999989      -2.92224849E-13
  0.612999976       8.75481599E-14
  0.614000022       4.19790884E-13
  0.615000010       6.99670790E-13
  0.615999997       9.24885819E-13
  0.616999984       1.09558532E-12
  0.617999971       1.21419563E-12
  0.619000018       1.28516295E-12
  0.620000005       1.31462744E-12
  0.620999992       1.31004485E-12
  0.621999979       1.27977360E-12
  0.623000026       1.23264593E-12
  0.624000013       1.17754070E-12
  0.625000000       1.12297552E-12
  0.625999987       1.07673289E-12
  0.626999974       1.04553399E-12
  0.628000021       1.03477068E-12
  0.629000008       1.04830348E-12
  0.629999995       1.08833027E-12
  0.630999982       1.15532714E-12
  0.632000029       1.24806057E-12
  0.633000016       1.36366688E-12
  0.634000003       1.49779256E-12
  0.634999990       1.64478750E-12
  0.635999978       1.79794157E-12
  0.637000024       1.94975373E-12
  0.638000011       2.09222375E-12
  0.638999999       2.21715354E-12
  0.639999986       2.31644912E-12
  0.640999973       2.38241263E-12
  0.642000020       2.40801584E-12
  0.643000007       2.38714755E-12
  0.643999994       2.31482867E-12
  0.644999981       2.18739089E-12
  0.646000028       2.00261530E-12
  0.647000015       1.75982894E-12
  0.648000002       1.45995932E-12
  0.648999989       1.10554719E-12
  0.649999976       7.00719159E-13
  0.651000023       2.51122392E-13
  0.652000010      -2.36176069E-13
  0.652999997      -7.52822717E-13
  0.653999984      -1.28933995E-12
  0.654999971      -1.83531359E-12
  0.656000018      -2.37960324E-12
  0.657000005      -2.91057066E-12
  0.657999992      -3.41632408E-12
  0.658999979      -3.88497394E-12
  0.660000026      -4.30489585E-12
  0.661000013      -4.66499799E-12
  0.662000000      -4.95498781E-12
  0.662999988      -5.16563224E-12
  0.663999975      -5.28900968E-12
  0.665000021      -5.31874544E-12
  0.666000009      -5.25022560E-12
  0.666999996      -5.08078388E-12
  0.667999983      -4.80985477E-12
  0.669000030      -4.43908755E-12
  0.670000017      -3.97241528E-12
  0.671000004      -3.41607385E-12
  0.671999991      -2.77856492E-12
  0.672999978      -2.07056204E-12
  0.674000025      -1.30475817E-12
  0.675000012      -4.95650613E-13
  0.675999999       3.40731458E-13
  0.676999986       1.18715476E-12
  0.677999973       2.02556006E-12
  0.679000020       2.83748220E-12
  0.680000007       3.60450407E-12
  0.680999994       4.30873176E-12
  0.681999981       4.93328078E-12
  0.683000028       5.46275438E-12
  0.684000015       5.88370585E-12
  0.685000002       6.18506591E-12
  0.685999990       6.35852048E-12
  0.686999977       6.39882505E-12
  0.688000023       6.30404366E-12
  0.689000010       6.07570114E-12
  0.689999998       5.71883946E-12
  0.690999985       5.24197005E-12
  0.691999972       4.65692459E-12
  0.693000019       3.97859653E-12
  0.694000006       3.22458444E-12
  0.694999993       2.41474050E-12
  0.695999980       1.57063436E-12
  0.697000027       7.14947795E-13
  0.698000014      -1.29183963E-13
  0.699000001      -9.38865088E-13
  0.699999988      -1.69214534E-12
  0.700999975      -2.36871677E-12
  0.702000022      -2.95057923E-12
  0.703000009      -3.42265062E-12
  0.703999996      -3.77330068E-12
  0.704999983      -3.99478887E-12
  0.705999970      -4.08358720E-12
  0.707000017      -4.04057560E-12
  0.708000004      -3.87109659E-12
  0.708999991      -3.58486266E-12
  0.709999979      -3.19571669E-12
  0.711000025      -2.72124554E-12
  0.712000012      -2.18225481E-12
  0.713000000      -1.60211829E-12
  0.713999987      -1.00601819E-12
  0.714999974      -4.20097659E-13
  0.716000021       1.29448671E-13
  0.717000008       6.17318479E-13
  0.717999995       1.02004885E-12
  0.718999982       1.31693517E-12
  0.720000029       1.49088966E-12
  0.721000016       1.52920656E-12
  0.722000003       1.42420613E-12
  0.722999990       1.17372832E-12
  0.723999977       7.81453515E-13
  0.725000024       2.57032622E-13
  0.726000011      -3.83987736E-13
  0.726999998      -1.12045095E-12
  0.727999985      -1.92608668E-12
  0.728999972      -2.77021136E-12
  0.730000019      -3.61861604E-12
  0.731000006      -4.43462237E-12
  0.731999993      -5.18027721E-12
  0.732999980      -5.81765105E-12
  0.734000027      -6.31020149E-12
  0.735000014      -6.62415565E-12
  0.736000001      -6.72986840E-12
  0.736999989      -6.60310565E-12
  0.737999976      -6.22620575E-12
  0.739000022      -5.58907434E-12
  0.740000010      -4.68996847E-12
  0.740999997      -3.53603366E-12
  0.741999984      -2.14356506E-12
  0.742999971      -5.37969138E-13
  0.744000018       1.24658703E-12
  0.745000005       3.16783860E-12
  0.745999992       5.17639360E-12
  0.746999979       7.21698959E-12
  0.748000026       9.23000565E-12
  0.749000013       1.11531912E-11
  0.750000000       1.29235607E-11
  0.750999987       1.44793977E-11
  0.751999974       1.57623012E-11
  0.753000021       1.67192111E-11
  0.754000008       1.73043385E-11
  0.754999995       1.74809316E-11
  0.755999982       1.72228082E-11
  0.757000029       1.65156014E-11
  0.758000016       1.53576631E-11
  0.759000003       1.37605665E-11
  0.759999990       1.17491971E-11
  0.760999978       9.36140488E-12
  0.762000024       6.64721273E-12
  0.763000011       3.66759878E-12
  0.763999999       4.92874621E-13
  0.764999986      -2.79929161E-12
  0.765999973      -6.12615384E-12
  0.767000020      -9.40239900E-12
  0.768000007      -1.25428114E-11
  0.768999994      -1.54649991E-11
  0.769999981      -1.80920973E-11
  0.771000028      -2.03553459E-11
  0.772000015      -2.21964634E-11
  0.773000002      -2.35697156E-11
  0.773999989      -2.44436086E-11
  0.774999976      -2.48021430E-11
  0.776000023      -2.46455668E-11
  0.777000010      -2.39906012E-11
  0.777999997      -2.28701138E-11
  0.778999984      -2.13322450E-11
  0.779999971      -1.94390042E-11
  0.781000018      -1.72643913E-11
  0.782000005      -1.48920667E-11
  0.782999992      -1.24126837E-11
  0.783999979      -9.92094688E-12
  0.785000026      -7.51250104E-12
  0.786000013      -5.28075673E-12
  0.787000000      -3.31376376E-12
  0.787999988      -1.69124176E-12
  0.788999975      -4.81868668E-13
  0.790000021       2.59071898E-13
  0.791000009       4.91599654E-13
  0.791999996       1.92436968E-13
  0.792999983      -6.44155194E-13
  0.794000030      -2.00614091E-12
  0.795000017      -3.86407876E-12
  0.796000004      -6.17208541E-12
  0.796999991      -8.86936358E-12
  0.797999978      -1.18822469E-11
  0.799000025      -1.51266846E-11
  0.800000012      -1.85110798E-11
  0.800999999      -2.19393826E-11
  0.801999986      -2.53143374E-11
  0.802999973      -2.85407600E-11
  0.804000020      -3.15287310E-11
  0.805000007      -3.41966004E-11
  0.805999994      -3.64737025E-11
  0.806999981      -3.83026701E-11
  0.808000028      -3.96412868E-11
  0.809000015      -4.04638233E-11
  0.810000002      -4.07617794E-11
  0.810999990      -4.05440369E-11
  0.811999977      -3.98364362E-11
  0.813000023      -3.86807704E-11
  0.814000010      -3.71332375E-11
  0.814999998      -3.52624353E-11
  0.815999985      -3.31469539E-11
  0.816999972      -3.08726655E-11
  0.818000019      -2.85297948E-11
  0.819000006      -2.62098815E-11
  0.819999993      -2.40027598E-11
  0.820999980      -2.19936291E-11
  0.822000027      -2.02603281E-11
  0.823000014      -1.88709014E-11
  0.824000001      -1.78815487E-11
  0.824999988      -1.73349911E-11
  0.825999975      -1.72593190E-11
  0.827000022      -1.76673624E-11
  0.828000009      -1.85565816E-11
  0.828999996      -1.99094526E-11
  0.829999983      -2.16943373E-11
  0.830999970      -2.38668078E-11
  0.832000017      -2.63713495E-11
  0.833000004      -2.91433752E-11
  0.833999991      -3.21114975E-11
  0.834999979      -3.51999367E-11
  0.836000025      -3.83310154E-11
  0.837000012      -4.14276426E-11
  0.838000000      -4.44156760E-11
  0.838999987      -4.72261466E-11
  0.839999974      -4.97972184E-11
  0.841000021      -5.20758749E-11
  0.842000008      -5.40192474E-11
  0.842999995      -5.55955802E-11
  0.843999982      -5.67848303E-11
  0.845000029      -5.75788514E-11
  0.846000016      -5.79812101E-11
  0.847000003      -5.80066585E-11
  0.847999990      -5.76802772E-11
  0.848999977      -5.70363444E-11
  0.850000024      -5.61169756E-11
  0.851000011      -5.49705975E-11
  0.851999998      -5.36503099E-11
  0.852999985      -5.22121756E-11
  0.853999972      -5.07135306E-11
  0.855000019      -4.92113433E-11
  0.856000006      -4.77606843E-11