   0.00000000       0.00000000    
   1.00000005E-03   0.00000000    
   2.00000009E-03   0.00000000    
   3.00000003E-03   0.00000000    
   4.00000019E-03   0.00000000    
   4.99999989E-03   0.00000000    
   6.00000005E-03   0.00000000    
   7.00000022E-03   0.00000000    
   8.00000038E-03   0.00000000    
   8.99999961E-03   0.00000000    
   9.99999978E-03   0.00000000    
   1.09999999E-02   0.00000000    
   1.20000001E-02   0.00000000    
   1.30000003E-02   0.00000000    
   1.40000004E-02   0.00000000    
   1.49999997E-02   0.00000000    
   1.60000008E-02   0.00000000    
   1.70000009E-02   0.00000000    
   1.79999992E-02   0.00000000    
   1.89999994E-02   0.00000000    
   1.99999996E-02   0.00000000    
   2.09999997E-02   0.00000000    
   2.19999999E-02   0.00000000    
   2.30000000E-02   0.00000000    
   2.40000002E-02   0.00000000    
   2.50000004E-02   0.00000000    
   2.60000005E-02  -3.57114888E-38
   2.70000007E-02  -1.16149493E-37
   2.80000009E-02  -2.81290555E-37
   2.89999992E-02  -6.03806997E-37
   2.99999993E-02  -1.21271078E-36
   3.09999995E-02  -2.31451064E-36
   3.20000015E-02  -4.24633846E-36
   3.29999998E-02  -7.55640040E-36
   3.40000018E-02  -1.30696275E-35
   3.50000001E-02  -2.20126614E-35
   3.59999985E-02  -3.61431997E-35
   3.70000005E-02  -5.78855376E-35
   3.79999988E-02  -9.04895953E-35
   3.90000008E-02  -1.38246102E-34
   3.99999991E-02  -2.06628213E-34
   4.10000011E-02  -3.02232110E-34
   4.19999994E-02  -4.32540549E-34
   4.30000015E-02  -6.05357137E-34
   4.39999998E-02  -8.27767510E-34
   4.50000018E-02  -1.10445115E-33
   4.60000001E-02  -1.43501393E-33
   4.69999984E-02  -1.81007175E-33
   4.80000004E-02  -2.20562303E-33
   4.89999987E-02  -2.57545449E-33
   5.00000007E-02  -2.84118785E-33
   5.09999990E-02  -2.87956039E-33
   5.20000011E-02  -2.50675125E-33
   5.29999994E-02  -1.45977995E-33
   5.40000014E-02   6.24627668E-34
   5.49999997E-02   4.23274834E-33
   5.60000017E-02   9.99637016E-33
   5.70000000E-02   1.87122611E-32
   5.79999983E-02   3.13543987E-32
   5.90000004E-02   4.90730894E-32
   5.99999987E-02   7.31733478E-32
   6.10000007E-02   1.05062981E-31
   6.19999990E-02   1.46159040E-31
   6.30000010E-02   1.97740320E-31
   6.40000030E-02   2.60733228E-31
   6.49999976E-02   3.35420190E-31
   6.59999996E-02   4.21063487E-31
   6.70000017E-02   5.15444681E-31
   6.80000037E-02   6.14331309E-31
   6.89999983E-02   7.10897747E-31
   7.00000003E-02   7.95149518E-31
   7.10000023E-02   8.53424227E-31
   7.19999969E-02   8.68074178E-31
   7.29999989E-02   8.17465761E-31
   7.40000010E-02   6.76462674E-31
   7.50000030E-02   4.17582143E-31
   7.59999976E-02   1.30279334E-32
   7.69999996E-02  -5.62206975E-31
   7.80000016E-02  -1.32601123E-30
   7.90000036E-02  -2.28352022E-30
   7.99999982E-02  -3.42022137E-30
   8.10000002E-02  -4.69402241E-30
   8.20000023E-02  -6.02675201E-30
   8.29999968E-02  -7.29584769E-30
   8.39999989E-02  -8.32734643E-30
   8.50000009E-02  -8.89165368E-30
   8.60000029E-02  -8.70394397E-30
   8.69999975E-02  -7.43137147E-30
   8.79999995E-02  -4.70947273E-30
   8.90000015E-02  -1.70185157E-31
   9.00000036E-02   6.51632604E-30
   9.09999982E-02   1.55844295E-29
   9.20000002E-02   2.70997964E-29
   9.30000022E-02   4.08711103E-29
   9.39999968E-02   5.63497611E-29
   9.49999988E-02   7.25231671E-29
   9.60000008E-02   8.78105971E-29
   9.70000029E-02   9.99737535E-29
   9.79999974E-02   1.06058073E-28
   9.89999995E-02   1.02384290E-28
  0.100000001       8.46124761E-29
  0.101000004       4.79026083E-29
  0.101999998      -1.28043767E-29
  0.103000000      -1.02363598E-28
  0.104000002      -2.24845364E-28
  0.104999997      -3.82790132E-28
  0.105999999      -5.76306225E-28
  0.107000001      -8.02035133E-28
  0.108000003      -1.05203230E-27
  0.108999997      -1.31263672E-27
  0.109999999      -1.56343093E-27
  0.111000001      -1.77642482E-27
  0.112000003      -1.91562217E-27
  0.112999998      -1.93715426E-27
  0.114000000      -1.79017731E-27
  0.115000002      -1.41873812E-27
  0.115999997      -7.64791596E-28
  0.116999999       2.27480541E-28
  0.118000001       1.60596057E-27
  0.119000003       3.40350032E-27
  0.119999997       5.62956564E-27
  0.120999999       8.26089285E-27
  0.122000001       1.12316128E-26
  0.123000003       1.44234912E-26
  0.123999998       1.76571245E-26
  0.125000000       2.06851748E-26
  0.126000002       2.31888359E-26
  0.127000004       2.47789161E-26
  0.128000006       2.50029387E-26
  0.128999993       2.33596659E-26
  0.129999995       1.93222404E-26
  0.130999997       1.23708828E-26
  0.131999999       2.03557872E-27
  0.133000001      -1.20514373E-26
  0.134000003      -3.00944365E-26
  0.135000005      -5.20662064E-26
  0.136000007      -7.76364486E-26
  0.136999995      -1.06100917E-25
  0.137999997      -1.36316841E-25
  0.138999999      -1.66651464E-25
  0.140000001      -1.94951171E-25
  0.141000003      -2.18539739E-25
  0.142000005      -2.34254341E-25
  0.143000007      -2.38527256E-25
  0.143999994      -2.27520772E-25
  0.144999996      -1.97320453E-25
  0.145999998      -1.44189377E-25
  0.147000000      -6.48822687E-26
  0.148000002       4.29862294E-26
  0.149000004       1.80530177E-25
  0.150000006       3.47154955E-25
  0.150999993       5.40117482E-25
  0.151999995       7.54113456E-25
  0.152999997       9.80928025E-25
  0.153999999       1.20919055E-24
  0.155000001       1.42427633E-24
  0.156000003       1.60840268E-24
  0.157000005       1.74096119E-24
  0.158000007       1.79912489E-24
  0.158999994       1.75876243E-24
  0.159999996       1.59567145E-24
  0.160999998       1.28713484E-24
  0.162000000       8.13774612E-25
  0.163000003       1.61657802E-25
  0.164000005      -6.75422559E-25
  0.165000007      -1.69359542E-24
  0.165999994      -2.87662468E-24
  0.166999996      -4.19384805E-24
  0.167999998      -5.59853086E-24
  0.169000000      -7.02683373E-24
  0.170000002      -8.39761287E-24
  0.171000004      -9.61324990E-24
  0.172000006      -1.05617100E-23
  0.172999993      -1.11199726E-23
  0.173999995      -1.11589503E-23
  0.174999997      -1.05499126E-23
  0.175999999      -9.17237762E-24
  0.177000001      -6.92330047E-24
  0.178000003      -3.72729441E-24
  0.179000005       4.52511471E-25
  0.180000007       5.60350029E-24
  0.180999994       1.16531172E-23
  0.181999996       1.84596875E-23
  0.182999998       2.58053299E-23
  0.184000000       3.33918321E-23
  0.185000002       4.08403767E-23
  0.186000004       4.76959566E-23
  0.187000006       5.34371727E-23
  0.187999994       5.74920061E-23
  0.188999996       5.92598875E-23
  0.189999998       5.81399890E-23
  0.191000000       5.35655109E-23
  0.192000002       4.50430489E-23
  0.193000004       3.21959158E-23
  0.194000006       1.48096345E-23
  0.194999993      -7.12254465E-24
  0.195999995      -3.33566868E-23
  0.196999997      -6.33607652E-23
  0.197999999      -9.62860018E-23
  0.199000001      -1.30950317E-22
  0.200000003      -1.65837066E-22
  0.201000005      -1.99112317E-22
  0.202000007      -2.28662958E-22
  0.202999994      -2.52157710E-22
  0.203999996      -2.67131855E-22
  0.204999998      -2.71095521E-22
  0.206000000      -2.61663799E-22
  0.207000002      -2.36705780E-22
  0.208000004      -1.94507654E-22
  0.209000006      -1.33943419E-22
  0.209999993      -5.46455372E-23
  0.210999995       4.28340585E-23
  0.211999997       1.56882914E-22
  0.213000000       2.84718278E-22
  0.214000002       4.22320106E-22
  0.215000004       5.64418088E-22
  0.216000006       7.04542605E-22
  0.216999993       8.35148739E-22
  0.217999995       9.47818624E-22
  0.218999997       1.03354541E-21
  0.219999999       1.08309800E-21
  0.221000001       1.08746018E-21
  0.222000003       1.03833492E-21
  0.223000005       9.28696838E-22
  0.224000007       7.53372817E-22
  0.224999994       5.09625147E-22
  0.225999996       1.97706516E-22
  0.226999998      -1.78646627E-22
  0.228000000      -6.11817647E-22
  0.229000002      -1.09004694E-21
  0.230000004      -1.59733827E-21
  0.231000006      -2.11356602E-21
  0.231999993      -2.61481061E-21
  0.232999995      -3.07394048E-21
  0.233999997      -3.46145036E-21
  0.234999999      -3.74655464E-21
  0.236000001      -3.89851838E-21
  0.237000003      -3.88819438E-21
  0.238000005      -3.68972556E-21
  0.238999993      -3.28234516E-21
  0.239999995      -2.65220378E-21
  0.240999997      -1.79413334E-21
  0.241999999      -7.13249509E-22
  0.243000001       5.73710895E-22
  0.244000003       2.03742542E-21
  0.245000005       3.63549797E-21
  0.246000007       5.31254285E-21
  0.246999994       7.00091824E-21
  0.247999996       8.62217366E-21
  0.248999998       1.00892391E-20
  0.250000000       1.13093579E-20
  0.250999987       1.21877236E-20
  0.252000004       1.26317475E-20
  0.252999991       1.25558351E-20
  0.254000008       1.18865103E-20
  0.254999995       1.05676815E-20
  0.256000012       8.56582198E-21
  0.256999999       5.87479060E-21
  0.257999986       2.52001886E-21
  0.259000003      -1.43823888E-21
  0.259999990      -5.90286788E-21
  0.261000007      -1.07393376E-20
  0.261999995      -1.57768530E-20
  0.263000011      -2.08114005E-20
  0.263999999      -2.56107752E-20
  0.264999986      -2.99216398E-20
  0.266000003      -3.34785229E-20
  0.266999990      -3.60146102E-20
  0.268000007      -3.72740283E-20
  0.268999994      -3.70252375E-20
  0.270000011      -3.50750591E-20
  0.270999998      -3.12827300E-20
  0.272000015      -2.55733355E-20
  0.273000002      -1.79499001E-20
  0.273999989      -8.50341023E-21
  0.275000006       2.57999390E-21
  0.275999993       1.50153282E-20
  0.277000010       2.84191987E-20
  0.277999997       4.23148701E-20
  0.279000014       5.61422733E-20
  0.280000001       6.92731322E-20
  0.280999988       8.10311298E-20
  0.282000005       9.07167556E-20
  0.282999992       9.76362830E-20
  0.284000009       1.01134049E-19
  0.284999996       1.00626903E-19
  0.286000013       9.56394755E-20
  0.287000000       8.58388134E-20
  0.287999988       7.10666278E-20
  0.289000005       5.13674281E-20
  0.289999992       2.70107509E-20
  0.291000009      -1.49420807E-21
  0.291999996      -3.33931295E-20
  0.293000013      -6.76915758E-20
  0.294000000      -1.03171440E-19
  0.294999987      -1.38419409E-19
  0.296000004      -1.71867491E-19
  0.296999991      -2.01845123E-19
  0.298000008      -2.26641827E-19
  0.298999995      -2.44578670E-19
  0.300000012      -2.54086439E-19
  0.300999999      -2.53787465E-19
  0.301999986      -2.42578159E-19
  0.303000003      -2.19708218E-19
  0.303999990      -1.84852830E-19
  0.305000007      -1.38173852E-19
  0.305999994      -8.03659279E-20
  0.307000011      -1.26838841E-20
  0.307999998       6.30517388E-20
  0.308999985       1.44473711E-19
  0.310000002       2.28713268E-19
  0.310999990       3.12472233E-19
  0.312000006       3.92121712E-19
  0.312999994       4.63825605E-19
  0.314000010       5.23685926E-19
  0.314999998       5.67906226E-19
  0.316000015       5.92966697E-19
  0.317000002       5.95805426E-19
  0.317999989       5.73997946E-19
  0.319000006       5.25926552E-19
  0.319999993       4.50931566E-19
  0.321000010       3.49435677E-19
  0.321999997       2.23033587E-19
  0.323000014       7.45390286E-20
  0.324000001      -9.20164179E-20
  0.324999988      -2.71437741E-19
  0.326000005      -4.57476632E-19
  0.326999992      -6.42997837E-19
  0.328000009      -8.20199880E-19
  0.328999996      -9.80885453E-19
  0.330000013      -1.11677427E-18
  0.331000000      -1.21984863E-18
  0.331999987      -1.28272025E-18
  0.333000004      -1.29900278E-18
  0.333999991      -1.26367576E-18
  0.335000008      -1.17342332E-18
  0.335999995      -1.02692901E-18
  0.337000012      -8.25111937E-19
  0.338000000      -5.71287585E-19
  0.338999987      -2.71240278E-19
  0.340000004       6.68042824E-20
  0.340999991       4.32313126E-19
  0.342000008       8.12690631E-19
  0.342999995       1.19363248E-18
  0.344000012       1.55958277E-18
  0.344999999       1.89428351E-18
  0.345999986       2.18139977E-18
  0.347000003       2.40520134E-18
  0.347999990       2.55127337E-18
  0.349000007       2.60723110E-18
  0.349999994       2.56340521E-18
  0.351000011       2.41346756E-18
  0.351999998       2.15496411E-18
  0.352999985       1.78972685E-18
  0.354000002       1.32413459E-18
  0.354999989       7.69201145E-19
  0.356000006       1.40473789E-19
  0.356999993      -5.42269211E-19
  0.358000010      -1.25552420E-18
  0.358999997      -1.97276393E-18
  0.360000014      -2.66532131E-18
  0.361000001      -3.30342953E-18
  0.361999989      -3.85738597E-18
  0.363000005      -4.29879974E-18
  0.363999993      -4.60187251E-18
  0.365000010      -4.74466250E-18
  0.365999997      -4.71027619E-18
  0.367000014      -4.48792714E-18
  0.368000001      -4.07381240E-18
  0.368999988      -3.47175065E-18
  0.370000005      -2.69354016E-18
  0.370999992      -1.75900288E-18
  0.372000009      -6.95688363E-19
  0.372999996       4.61771716E-19
  0.374000013       1.67265432E-18
  0.375000000       2.89146153E-18
  0.375999987       4.06952678E-18
  0.377000004       5.15686273E-18
  0.377999991       6.10418223E-18
  0.379000008       6.86502254E-18
  0.379999995       7.39787657E-18
  0.381000012       7.66825296E-18
  0.381999999       7.65055461E-18
  0.382999986       7.32969787E-18
  0.384000003       6.70237029E-18
  0.384999990       5.77786154E-18
  0.386000007       4.57839671E-18
  0.386999995       3.13892853E-18
  0.388000011       1.50636486E-18
  0.388999999      -2.61768336E-19
  0.389999986      -2.09920676E-18
  0.391000003      -3.93331826E-18
  0.391999990      -5.68788869E-18
  0.393000007      -7.28622704E-18
  0.393999994      -8.65446732E-18
  0.395000011      -9.72493416E-18
  0.395999998      -1.04394271E-17
  0.397000015      -1.07522735E-17
  0.398000002      -1.06329907E-17
  0.398999989      -1.00684275E-17
  0.400000006      -9.06425260E-18
  0.400999993      -7.64568334E-18
  0.402000010      -5.85737883E-18
  0.402999997      -3.76245666E-18
  0.404000014      -1.44062137E-18
  0.405000001       1.01455987E-18
  0.405999988       3.49915969E-18
  0.407000005       5.90305905E-18
  0.407999992       8.11463023E-18
  0.409000009       1.00257491E-17
  0.409999996       1.15369312E-17
  0.411000013       1.25623580E-17
  0.412000000       1.30345665E-17
  0.412999988       1.29085513E-17
  0.414000005       1.21650748E-17
  0.414999992       1.08129687E-17
  0.416000009       8.89027170E-18
  0.416999996       6.46408272E-18
  0.418000013       3.62904814E-18
  0.419000000       5.04483807E-19
  0.419999987      -2.76982876E-18
  0.421000004      -6.03904837E-18
  0.421999991      -9.13971298E-18
  0.423000008      -1.19069704E-17
  0.423999995      -1.41823243E-17
  0.425000012      -1.58215498E-17
  0.425999999      -1.67024491E-17
  0.426999986      -1.67320589E-17
  0.428000003      -1.58529413E-17
  0.428999990      -1.40482251E-17
  0.430000007      -1.13450683E-17
  0.430999994      -7.81629596E-18
  0.432000011      -3.58001122E-18
  0.432999998       1.20292234E-18
  0.433999985       6.33355527E-18
  0.435000002       1.15816006E-17
  0.435999990       1.66940847E-17
  0.437000006       2.14056161E-17
  0.437999994       2.54499304E-17
  0.439000010       2.85722345E-17
  0.439999998       3.05418574E-17
  0.441000015       3.11646682E-17
  0.442000002       3.02946363E-17
  0.442999989       2.78440145E-17
  0.444000006       2.37915375E-17
  0.444999993       1.81881962E-17
  0.446000010       1.11601215E-17
  0.446999997       2.90830251E-18
  0.448000014      -6.29507649E-18
  0.449000001      -1.61137166E-17
  0.449999988      -2.61576116E-17
  0.451000005      -3.59965312E-17
  0.451999992      -4.51761747E-17
  0.453000009      -5.32364476E-17
  0.453999996      -5.97312083E-17
  0.455000013      -6.42486799E-17
  0.456000000      -6.64317088E-17
  0.456999987      -6.59969427E-17
  0.458000004      -6.27520719E-17
  0.458999991      -5.66102294E-17
  0.460000008      -4.76007767E-17
  0.460999995      -3.58758125E-17
  0.462000012      -2.17118235E-17
  0.463000000      -5.50617490E-18
  0.463999987       1.22317323E-17
  0.465000004       3.08945738E-17
  0.465999991       4.97961703E-17
  0.467000008       6.81949865E-17
  0.467999995       8.53213045E-17
  0.469000012       1.00407173E-16
  0.469999999       1.12717957E-16
  0.470999986       1.21584287E-16
  0.472000003       1.26433114E-16
  0.472999990       1.26816489E-16
  0.474000007       1.22436746E-16
  0.474999994       1.13166897E-16
  0.476000011       9.90651552E-17
  0.476999998       8.03825797E-17
  0.477999985       5.75633599E-17
  0.479000002       3.12372715E-17
  0.479999989       2.20420059E-18
  0.481000006      -2.85889038E-17
  0.481999993      -6.00781213E-17
  0.483000010      -9.11187884E-17
  0.483999997      -1.20526608E-16
  0.485000014      -1.47122251E-16
  0.486000001      -1.69777802E-16
  0.486999989      -1.87463042E-16
  0.488000005      -1.99290044E-16
  0.488999993      -2.04553825E-16
  0.490000010      -2.02767578E-16
  0.490999997      -1.93690561E-16
  0.492000014      -1.77347431E-16
  0.493000001      -1.54037812E-16
  0.493999988      -1.24335424E-16
  0.495000005      -8.90762876E-17
  0.495999992      -4.93362182E-17
  0.497000009      -6.39805716E-18
  0.497999996       3.82903990E-17
  0.499000013       8.31663865E-17
  0.500000000       1.26608344E-16
  0.500999987       1.66996265E-16
  0.501999974       2.02773851E-16
  0.503000021       2.32510200E-16
  0.504000008       2.54958294E-16
  0.504999995       2.69108217E-16
  0.505999982       2.74232422E-16
  0.507000029       2.69921236E-16
  0.508000016       2.56107056E-16
  0.509000003       2.33075462E-16
  0.509999990       2.01463107E-16
  0.510999978       1.62241445E-16
  0.512000024       1.16687179E-16
  0.513000011       6.63399381E-17
  0.513999999       1.29485935E-17
  0.514999986      -4.15917926E-17
  0.515999973      -9.53101325E-17
  0.517000020      -1.46233965E-16
  0.518000007      -1.92465685E-16
  0.518999994      -2.32257334E-16
  0.519999981      -2.64080838E-16
  0.521000028      -2.86690980E-16
  0.522000015      -2.99178072E-16
  0.523000002      -3.01008537E-16
  0.523999989      -2.92050872E-16
  0.524999976      -2.72586346E-16
  0.526000023      -2.43303094E-16
  0.527000010      -2.05274213E-16
  0.527999997      -1.59919781E-16
  0.528999984      -1.08954569E-16
  0.529999971      -5.43231346E-17
  0.531000018       1.87526518E-18
  0.532000005       5.74690017E-17
  0.532999992       1.10300478E-16
  0.533999979       1.58312986E-16
  0.535000026       1.99634734E-16
  0.536000013       2.32656234E-16
  0.537000000       2.56098003E-16
  0.537999988       2.69065627E-16
  0.538999975       2.71089639E-16
  0.540000021       2.62148306E-16
  0.541000009       2.42672398E-16
  0.541999996       2.13531156E-16
  0.542999983       1.75999881E-16
  0.544000030       1.31710288E-16
  0.545000017       8.25853683E-17
  0.546000004       3.07611331E-17
  0.546999991      -2.15014715E-17
  0.547999978      -7.19111782E-17
  0.549000025      -1.18243576E-16
  0.550000012      -1.58436851E-16
  0.550999999      -1.90682045E-16
  0.551999986      -2.13504064E-16
  0.552999973      -2.25829678E-16
  0.554000020      -2.27039638E-16
  0.555000007      -2.17002377E-16
  0.555999994      -1.96087452E-16
  0.556999981      -1.65157965E-16
  0.558000028      -1.25541757E-16
  0.559000015      -7.89821695E-17
  0.560000002      -2.75701565E-17
  0.560999990       2.63399271E-17
  0.561999977       8.02275528E-17
  0.563000023       1.31512506E-16
  0.564000010       1.77666378E-16
  0.564999998       2.16324486E-16
  0.565999985       2.45393545E-16
  0.566999972       2.63150505E-16
  0.568000019       2.68328285E-16
  0.569000006       2.60184302E-16
  0.569999993       2.38548830E-16
  0.570999980       2.03850350E-16
  0.572000027       1.57116538E-16
  0.573000014       9.99499341E-17
  0.574000001       3.44788599E-17
  0.574999988      -3.67152552E-17
  0.575999975      -1.10691702E-16
  0.577000022      -1.84262290E-16
  0.578000009      -2.54117005E-16
  0.578999996      -3.16958908E-16
  0.579999983      -3.69643034E-16
  0.580999970      -4.09313637E-16
  0.582000017      -4.33534597E-16
  0.583000004      -4.40407052E-16
  0.583999991      -4.28669425E-16
  0.584999979      -3.97775460E-16
  0.586000025      -3.47946100E-16
  0.587000012      -2.80192517E-16
  0.588000000      -1.96308475E-16
  0.588999987      -9.88314602E-17
  0.589999974       9.02723875E-18
  0.591000021       1.23481416E-16
  0.592000008       2.40295174E-16
  0.592999995       3.54930284E-16
  0.593999982       4.62710859E-16
  0.595000029       5.58999499E-16
  0.596000016       6.39378638E-16
  0.597000003       6.99830003E-16
  0.597999990       7.36906117E-16
  0.598999977       7.47885994E-16
  0.600000024       7.30909283E-16
  0.601000011       6.85083424E-16
  0.601999998       6.10557971E-16
  0.602999985       5.08563028E-16
  0.603999972       3.81409063E-16
  0.605000019       2.32446355E-16
  0.606000006       6.59850643E-17
  0.606999993      -1.12823042E-16
  0.607999980      -2.98137863E-16
  0.609000027      -4.83614679E-16
  0.610000014      -6.62612699E-16
  0.611000001      -8.28421781E-16
  0.611999989      -9.74499230E-16
  0.612999976      -1.09470919E-15
  0.614000022      -1.18355533E-15
  0.615000010      -1.23639875E-15
  0.615999997      -1.24965333E-15
  0.616999984      -1.22094971E-15
  0.617999971      -1.14926246E-15
  0.619000018      -1.03499422E-15
  0.620000005      -8.80012916E-16
  0.620999992      -6.87639293E-16
  0.621999979      -4.62583698E-16
  0.623000026      -2.10833714E-16
  0.624000013       6.05055685E-17
  0.625000000       3.43413838E-16
  0.625999987       6.29194708E-16
  0.626999974       9.08743956E-16
  0.628000021       1.17283941E-15
  0.629000008       1.41244089E-15
  0.629999995       1.61899326E-15
  0.630999982       1.78471960E-15
  0.632000029       1.90289551E-15
  0.633000016       1.96809524E-15
  0.634000003       1.97640019E-15
  0.634999990       1.92556233E-15
  0.635999978       1.81511622E-15
  0.637000024       1.64643480E-15
  0.638000011       1.42272672E-15
  0.638999999       1.14897404E-15
  0.639999986       8.31811818E-16
  0.640999973       4.79352886E-16
  0.642000020       1.00962046E-16
  0.643000007      -2.93012096E-16
  0.643999994      -6.91540039E-16
  0.644999981      -1.08323963E-15
  0.646000028      -1.45671805E-15
  0.647000015      -1.80091825E-15
  0.648000002      -2.10545667E-15
  0.648999989      -2.36094319E-15
  0.649999976      -2.55927045E-15
  0.651000023      -2.69386653E-15
  0.652000010      -2.75989995E-15
  0.652999997      -2.75443256E-15
  0.653999984      -2.67651294E-15
  0.654999971      -2.52721152E-15
  0.656000018      -2.30959267E-15
  0.657000005      -2.02862739E-15
  0.657999992      -1.69105014E-15
  0.658999979      -1.30516268E-15
  0.660000026      -8.80593240E-16
  0.661000013      -4.28020068E-16
  0.662000000       4.11344412E-17
  0.662999988       5.15026260E-16
  0.663999975       9.81720186E-16
  0.665000021       1.42951760E-15
  0.666000009       1.84727171E-15
  0.666999996       2.22468100E-15
  0.667999983       2.55255157E-15
  0.669000030       2.82302381E-15
  0.670000017       3.02975533E-15
  0.671000004       3.16805717E-15
  0.671999991       3.23498040E-15
  0.672999978       3.22935398E-15
  0.674000025       3.15177233E-15
  0.675000012       3.00453619E-15
  0.675999999       2.79155187E-15
  0.676999986       2.51818978E-15
  0.677999973       2.19111351E-15
  0.679000020       1.81808147E-15
  0.680000007       1.40772895E-15
  0.680999994       9.69339423E-16
  0.681999981       5.12609411E-16
  0.683000028       4.74150680E-17
  0.684000015      -4.16414605E-16
  0.685000002      -8.69311767E-16
  0.685999990      -1.30216725E-15
  0.686999977      -1.70650807E-15
  0.688000023      -2.07465135E-15
  0.689000010      -2.39983386E-15
  0.689999998      -2.67631664E-15
  0.690999985      -2.89946218E-15
  0.691999972      -3.06578811E-15
  0.693000019      -3.17299495E-15
  0.694000006      -3.21997119E-15
  0.694999993      -3.20677780E-15
  0.695999980      -3.13461186E-15
  0.697000027      -3.00575295E-15
  0.698000014      -2.82349327E-15
  0.699000001      -2.59205274E-15
  0.699999988      -2.31648264E-15
  0.700999975      -2.00255720E-15
  0.702000022      -1.65665457E-15
  0.703000009      -1.28563105E-15
  0.703999996      -8.96686972E-16
  0.704999983      -4.97228245E-16
  0.705999970      -9.47235820E-17
  0.707000017       3.03439442E-16
  0.708000004       6.90097859E-16
  0.708999991       1.05845343E-15
  0.709999979       1.40220725E-15
  0.711000025       1.71568493E-15
  0.712000012       1.99394965E-15
  0.713000000       2.23290019E-15
  0.713999987       2.42934957E-15
  0.714999974       2.58108346E-15
  0.716000021       2.68689248E-15
  0.717000008       2.74657993E-15
  0.717999995       2.76094180E-15
  0.718999982       2.73171831E-15
  0.720000029       2.66151770E-15
  0.721000016       2.55371497E-15
  0.722000003       2.41232760E-15
  0.722999990       2.24186963E-15
  0.723999977       2.04719351E-15
  0.725000024       1.83332065E-15
  0.726000011       1.60526921E-15
  0.726999998       1.36788653E-15
  0.727999985       1.12569069E-15
  0.728999972       8.82729880E-16
  0.730000019       6.42465067E-16
  0.731000006       4.07681643E-16
  0.731999993       1.80434680E-16
  0.732999980      -3.79693967E-17
  0.734000027      -2.46952985E-16
  0.735000014      -4.46609186E-16
  0.736000001      -6.37607704E-16
  0.736999989      -8.21068476E-16
  0.737999976      -9.98408005E-16
  0.739000022      -1.17116630E-15
  0.740000010      -1.34082097E-15
  0.740999997      -1.50860009E-15
  0.741999984      -1.67530136E-15
  0.742999971      -1.84112881E-15
  0.744000018      -2.00555654E-15
  0.745000005      -2.16722633E-15
  0.745999992      -2.32389016E-15
  0.746999979      -2.47239918E-15
  0.748000026      -2.60874565E-15
  0.749000013      -2.72815760E-15
  0.750000000      -2.82524600E-15
  0.750999987      -2.89419977E-15
  0.751999974      -2.92902151E-15
  0.753000021      -2.92379722E-15
  0.754000008      -2.87298859E-15
  0.754999995      -2.77173300E-15
  0.755999982      -2.61614215E-15
  0.757000029      -2.40358093E-15
  0.758000016      -2.13291578E-15
  0.759000003      -1.80471677E-15
  0.759999990      -1.42140398E-15
  0.760999978      -9.87326591E-16
  0.762000024      -5.08767375E-16
  0.763000011       6.13049525E-18
  0.763999999       5.47516433E-16
  0.764999986       1.10406277E-15
  0.765999973       1.66326629E-15
  0.767000020       2.21181203E-15
  0.768000007       2.73598609E-15
  0.768999994       3.22212519E-15
  0.769999981       3.65708211E-15
  0.771000028       4.02869199E-15
  0.772000015       4.32621908E-15
  0.773000002       4.54076660E-15
  0.773999989       4.66562730E-15
  0.774999976       4.69656857E-15
  0.776000023       4.63202635E-15
  0.777000010       4.47320768E-15
  0.777999997       4.22409105E-15
  0.778999984       3.89132442E-15
  0.779999971       3.48401910E-15
  0.781000018       3.01345058E-15
  0.782000005       2.49267482E-15
  0.782999992       1.93607252E-15
  0.783999979       1.35884159E-15
  0.785000026       7.76455939E-16
  0.786000013       2.04111991E-16
  0.787000000      -3.43813161E-16
  0.787999988      -8.54271638E-16
  0.788999975      -1.31600057E-15
  0.790000021      -1.71990474E-15
  0.791000009      -2.05935097E-15
  0.791999996      -2.33035959E-15
  0.792999983      -2.53168831E-15
  0.794000030      -2.66480017E-15
  0.795000017      -2.73372091E-15
  0.796000004      -2.74478867E-15
  0.796999991      -2.70630775E-15
  0.797999978      -2.62812004E-15
  0.799000025      -2.52111458E-15
  0.800000012      -2.39669243E-15
  0.800999999      -2.26621420E-15
  0.801999986      -2.14044993E-15
  0.802999973      -2.02905853E-15
  0.804000020      -1.94011711E-15
  0.805000007      -1.87972218E-15
  0.805999994      -1.85168094E-15
  0.806999981      -1.85730503E-15
  0.808000028      -1.89531817E-15
  0.809000015      -1.96188183E-15
  0.810000002      -2.05073961E-15
  0.810999990      -2.15347391E-15
  0.811999977      -2.25986739E-15
  0.813000023      -2.35835381E-15
  0.814000010      -2.43653898E-15
  0.814999998      -2.48177371E-15
  0.815999985      -2.48175296E-15
  0.816999972      -2.42511695E-15
  0.818000019      -2.30203036E-15
  0.819000006      -2.10471467E-15
  0.819999993      -1.82791150E-15
  0.820999980      -1.46925626E-15
  0.822000027      -1.02954695E-15
  0.823000014      -5.12894543E-16
  0.824000001       7.32522563E-17
  0.824999988       7.18211200E-16
  0.825999975       1.40829868E-15
  0.827000022       2.12718137E-15
  0.828000009       2.85633803E-15
  0.828999996       3.57561491E-15
  0.829999983       4.26385671E-15
  0.830999970       4.89959009E-15
  0.832000017       5.46173917E-15
  0.833000004       5.93034279E-15
  0.833999991       6.28725536E-15
  0.834999979       6.51679960E-15
  0.836000025       6.60635639E-15
  0.837000012       6.54686334E-15
  0.838000000       6.33321029E-15
  0.838999987       5.96451421E-15
  0.839999974       5.44426827E-15
  0.841000021       4.78035156E-15
  0.842000008       3.98490673E-15
  0.842999995       3.07408225E-15
  0.843999982       2.06765105E-15
  0.845000029       9.88514660E-16
  0.846000016      -1.37892305E-16
  0.847000003      -1.28427781E-15
  0.847999990      -2.42222984E-15
  0.848999977      -3.52299066E-15
  0.850000024      -4.55824809E-15
  0.851000011      -5.50091656E-15
  0.851999998      -6.32588515E-15
  0.852999985      -7.01071467E-15
  0.853999972      -7.53625457E-15
  0.855000019      -7.88717101E-15
  0.856000006      -8.05236022E-15