   0.00000000       0.00000000    
   1.00000005E-03   0.00000000    
   2.00000009E-03   0.00000000    
   3.00000003E-03   0.00000000    
   4.00000019E-03   0.00000000    
   4.99999989E-03   0.00000000    
   6.00000005E-03   0.00000000    
   7.00000022E-03   0.00000000    
   8.00000038E-03   0.00000000    
   8.99999961E-03   0.00000000    
   9.99999978E-03   0.00000000    
   1.09999999E-02  -4.26350416E-37
   1.20000001E-02  -4.78079235E-36
   1.30000003E-02  -3.07707285E-35
   1.40000004E-02  -1.49723806E-34
   1.49999997E-02  -6.10486746E-34
   1.60000008E-02  -2.18464854E-33
   1.70000009E-02  -7.07771761E-33
   1.79999992E-02  -2.10706040E-32
   1.89999994E-02  -5.81869527E-32
   1.99999996E-02  -1.50315024E-31
   2.09999997E-02  -3.65847978E-31
   2.19999999E-02  -8.43605934E-31
   2.30000000E-02  -1.85124618E-30
   2.40000002E-02  -3.88086620E-30
   2.50000004E-02  -7.79722819E-30
   2.60000005E-02  -1.50546272E-29
   2.70000007E-02  -2.79945112E-29
   2.80000009E-02  -5.02232636E-29
   2.89999992E-02  -8.70428552E-29
   2.99999993E-02  -1.45859438E-28
   3.09999995E-02  -2.36419216E-28
   3.20000015E-02  -3.70609660E-28
   3.29999998E-02  -5.61412479E-28
   3.40000018E-02  -8.20403015E-28
   3.50000001E-02  -1.15296788E-27
   3.59999985E-02  -1.55018140E-27
   3.70000005E-02  -1.97607981E-27
   3.79999988E-02  -2.34897028E-27
   3.90000008E-02  -2.51548753E-27
   3.99999991E-02  -2.21649345E-27
   4.10000011E-02  -1.04473110E-27
   4.19999994E-02   1.60444081E-27
   4.30000015E-02   6.58577291E-27
   4.39999998E-02   1.50538404E-26
   4.50000018E-02   2.84993936E-26
   4.60000001E-02   4.87572831E-26
   4.69999984E-02   7.79655515E-26
   4.80000004E-02   1.18449942E-25
   4.89999987E-02   1.72503148E-25
   5.00000007E-02   2.42025016E-25
   5.09999990E-02   3.27989777E-25
   5.20000011E-02   4.29710876E-25
   5.29999994E-02   5.43884786E-25
   5.40000014E-02   6.63414913E-25
   5.49999997E-02   7.76045811E-25
   5.60000017E-02   8.62879132E-25
   5.70000000E-02   8.96894913E-25
   5.79999983E-02   8.41664592E-25
   5.90000004E-02   6.50514523E-25
   5.99999987E-02   2.66471273E-25
   6.10000007E-02  -3.76609296E-25
   6.19999990E-02  -1.35127377E-24
   6.30000010E-02  -2.73158057E-24
   6.40000030E-02  -4.58562241E-24
   6.49999976E-02  -6.96507224E-24
   6.59999996E-02  -9.89152216E-24
   6.70000017E-02  -1.33396253E-23
   6.80000037E-02  -1.72174194E-23
   6.89999983E-02  -2.13446450E-23
   7.00000003E-02  -2.54304774E-23
   7.10000023E-02  -2.90527090E-23
   7.19999969E-02  -3.16411226E-23
   7.29999989E-02  -3.24685588E-23
   7.40000010E-02  -3.06537148E-23
   7.50000030E-02  -2.51802539E-23
   7.59999976E-02  -1.49369534E-23
   7.69999996E-02   1.21657971E-24
   7.80000016E-02   2.43548120E-23
   7.90000036E-02   5.53593932E-23
   7.99999982E-02   9.47601176E-23
   8.10000002E-02   1.42546370E-22
   8.20000023E-02   1.97955291E-22
   8.29999968E-02   2.59247411E-22
   8.39999989E-02   3.23485579E-22
   8.50000009E-02   3.86338103E-22
   8.60000029E-02   4.41932753E-22
   8.69999975E-02   4.82792214E-22
   8.79999995E-02   4.99885833E-22
   8.90000015E-02   4.82833715E-22
   9.00000036E-02   4.20298350E-22
   9.09999982E-02   3.00594224E-22
   9.20000002E-02   1.12537799E-22
   9.30000022E-02  -1.53453111E-22
   9.39999968E-02  -5.04019312E-22
   9.49999988E-02  -9.41311645E-22
   9.60000008E-02  -1.46129372E-21
   9.70000029E-02  -2.05198549E-21
   9.79999974E-02  -2.69177173E-21
   9.89999995E-02  -3.34793255E-21
  0.100000001      -3.97558149E-21
  0.101000004      -4.51722404E-21
  0.101999998      -4.90315993E-21
  0.103000000      -5.05295798E-21
  0.104000002      -4.87821082E-21
  0.104999997      -4.28674114E-21
  0.105999999      -3.18837110E-21
  0.107000001      -1.50227359E-21
  0.108000003       8.34187616E-22
  0.108999997       3.85536040E-21
  0.109999999       7.55634094E-21
  0.111000001       1.18817112E-20
  0.112000003       1.67147175E-20
  0.112999998       2.18678103E-20
  0.114000000       2.70755941E-20
  0.115000002       3.19913750E-20
  0.115999997       3.61885153E-20
  0.116999999       3.91678066E-20
  0.118000001       4.03719392E-20
  0.119000003       3.92079345E-20
  0.119999997       3.50780673E-20
  0.120999999       2.74193442E-20
  0.122000001       1.57510181E-20
  0.123000003      -2.71057555E-22
  0.123999998      -2.07952140E-20
  0.125000000      -4.57126664E-20
  0.126000002      -7.45977520E-20
  0.127000004      -1.06654096E-19
  0.128000006      -1.40671731E-19
  0.128999993      -1.75000696E-19
  0.129999995      -2.07546854E-19
  0.130999997      -2.35795459E-19
  0.131999999      -2.56867627E-19
  0.133000001      -2.67613659E-19
  0.134000003      -2.64745979E-19
  0.135000005      -2.45012267E-19
  0.136000007      -2.05406924E-19
  0.136999995      -1.43416148E-19
  0.137999997      -5.72890429E-20
  0.138999999       5.36767678E-20
  0.140000001       1.88849599E-19
  0.141000003       3.45995769E-19
  0.142000005       5.21049857E-19
  0.143000007       7.07945733E-19
  0.143999994       8.98531454E-19
  0.144999996       1.08259124E-18
  0.145999998       1.24799603E-18
  0.147000000       1.38100016E-18
  0.148000002       1.46669721E-18
  0.149000004       1.48963999E-18
  0.150000006       1.43462173E-18
  0.150999993       1.28760516E-18
  0.151999995       1.03677381E-18
  0.152999997       6.73668350E-19
  0.153999999       1.94359010E-19
  0.155000001      -3.99407959E-19
  0.156000003      -1.09916080E-18
  0.157000005      -1.88882929E-18
  0.158000007      -2.74413156E-18
  0.158999994      -3.63230682E-18
  0.159999996      -4.51227190E-18
  0.160999998      -5.33527442E-18
  0.162000000      -6.04609595E-18
  0.163000003      -6.58483785E-18
  0.164000005      -6.88929822E-18
  0.165000007      -6.89791331E-18
  0.165999994      -6.55319571E-18
  0.166999996      -5.80557747E-18
  0.167999998      -4.61750623E-18
  0.169000000      -2.96762067E-18
  0.170000002      -8.54786111E-19
  0.171000004       1.69825174E-18
  0.172000006       4.64185842E-18
  0.172999993       7.89742253E-18
  0.173999995       1.13564503E-17
  0.174999997       1.48810917E-17
  0.175999999       1.83062977E-17
  0.177000001       2.14437773E-17
  0.178000003       2.40878055E-17
  0.179000005       2.60228953E-17
  0.180000007       2.70332137E-17
  0.180999994       2.69135173E-17
  0.181999996       2.54812789E-17
  0.182999998       2.25895399E-17
  0.184000000       1.81399385E-17
  0.185000002       1.20952640E-17
  0.186000004       4.49080366E-18
  0.187000006      -4.55627253E-18
  0.187999994      -1.48402720E-17
  0.188999996      -2.60638258E-17
  0.189999998      -3.78388874E-17
  0.191000000      -4.96924121E-17
  0.192000002      -6.10771503E-17
  0.193000004      -7.13876390E-17
  0.194000006      -7.99813838E-17
  0.194999993      -8.62048393E-17
  0.195999995      -8.94235513E-17
  0.196999997      -8.90554956E-17
  0.197999999      -8.46063690E-17
  0.199000001      -7.57053696E-17
  0.200000003      -6.21396605E-17
  0.201000005      -4.38857365E-17
  0.202000007      -2.11356128E-17
  0.202999994       5.68401128E-18
  0.203999996       3.59014948E-17
  0.204999998       6.86005697E-17
  0.206000000       1.02632448E-16
  0.207000002       1.36640629E-16
  0.208000004       1.69098667E-16
  0.209000006       1.98360770E-16
  0.209999993       2.22724084E-16
  0.210999995       2.40501082E-16
  0.211999997       2.50099818E-16
  0.213000000       2.50108951E-16
  0.214000002       2.39383925E-16
  0.215000004       2.17130371E-16
  0.216000006       1.82980412E-16
  0.216999993       1.37057342E-16
  0.217999995       8.00243046E-17
  0.218999997       1.31129369E-17
  0.219999999      -6.18714819E-17
  0.221000001      -1.42571170E-16
  0.222000003      -2.26124921E-16
  0.223000005      -3.09245720E-16
  0.224000007      -3.88325960E-16
  0.224999994      -4.59568155E-16
  0.225999996      -5.19137441E-16
  0.226999998      -5.63330538E-16
  0.228000000      -5.88755026E-16
  0.229000002      -5.92511352E-16
  0.230000004      -5.72369067E-16
  0.231000006      -5.26928450E-16
  0.231999993      -4.55758624E-16
  0.232999995      -3.59503679E-16
  0.233999997      -2.39948499E-16
  0.234999999      -1.00038297E-16
  0.236000001       5.61537184E-17
  0.237000003       2.23512884E-16
  0.238000005       3.96024537E-16
  0.238999993       5.66968227E-16
  0.239999995       7.29159578E-16
  0.240999997       8.75232421E-16
  0.241999999       9.97951031E-16
  0.243000001       1.09053999E-15
  0.244000003       1.14701708E-15
  0.245000005       1.16251450E-15
  0.246000007       1.13357170E-15
  0.246999994       1.05838387E-15
  0.247999996       9.36991870E-16
  0.248999998       7.71399893E-16
  0.250000000       5.65610327E-16
  0.250999987       3.25568972E-16
  0.252000004       5.90173515E-17
  0.252999991      -2.24747011E-16
  0.254000008      -5.15196620E-16
  0.254999995      -8.00975743E-16
  0.256000012      -1.07036356E-15
  0.256999999      -1.31177928E-15
  0.257999986      -1.51430793E-15
  0.259000003      -1.66822133E-15
  0.259999990      -1.76546982E-15
  0.261000007      -1.80011823E-15
  0.261999995      -1.76870136E-15
  0.263000011      -1.67047762E-15
  0.263999999      -1.50756322E-15
  0.264999986      -1.28493352E-15
  0.266000003      -1.01028500E-15
  0.266999990      -6.93758577E-16
  0.268000007      -3.47531636E-16
  0.268999994       1.47067287E-17
  0.270000011       3.78375335E-16
  0.270999998       7.28687198E-16
  0.272000015       1.05136906E-15
  0.273000002       1.33337873E-15
  0.273999989       1.56357983E-15
  0.275000006       1.73333678E-15
  0.275999993       1.83699381E-15
  0.277000010       1.87220645E-15
  0.277999997       1.84009903E-15
  0.279000014       1.74523314E-15
  0.280000001       1.59537925E-15
  0.280999988       1.40109403E-15
  0.282000005       1.17512025E-15
  0.282999992       9.31634069E-16
  0.284000009       6.85377027E-16
  0.284999996       4.50717878E-16
  0.286000013       2.40697356E-16
  0.287000000       6.61129796E-17
  0.287999988      -6.52979023E-17
  0.289000005      -1.49519209E-16
  0.289999992      -1.86710334E-16
  0.291000009      -1.81410555E-16
  0.291999996      -1.42461916E-16
  0.293000013      -8.26349991E-17
  0.294000000      -1.79570886E-17
  0.294999987       3.32388434E-17
  0.296000004       5.15081827E-17
  0.296999991       1.76772004E-17
  0.298000008      -8.56559355E-17
  0.298999995      -2.72585287E-16
  0.300000012      -5.52419165E-16
  0.300999999      -9.28358063E-16
  0.301999986      -1.39642529E-15
  0.303000003      -1.94474254E-15
  0.303999990      -2.55322899E-15
  0.305000007      -3.19378580E-15
  0.305999994      -3.83100508E-15
  0.307000011      -4.42341611E-15
  0.307999998      -4.92525010E-15
  0.308999985      -5.28867382E-15
  0.310000002      -5.46640971E-15
  0.310999990      -5.41463440E-15
  0.312000006      -5.09601237E-15
  0.312999994      -4.48270800E-15
  0.314000010      -3.55920280E-15
  0.314999998      -2.32473825E-15
  0.316000015      -7.95207766E-16
  0.317000002       9.95665524E-16
  0.317999989       2.99600000E-15
  0.319000006       5.13638238E-15
  0.319999993       7.33151400E-15
  0.321000010       9.48288790E-15
  0.321999997       1.14824515E-14
  0.323000014       1.32171631E-14
  0.324000001       1.45742793E-14
  0.324999988       1.54471654E-14
  0.326000005       1.57413789E-14
  0.326999992       1.53807156E-14
  0.328000009       1.43129137E-14
  0.328999996       1.25146780E-14
  0.330000013       9.99570621E-15
  0.331000000       6.80140733E-15
  0.331999987       3.01406298E-15
  0.333000004      -1.24777567E-15
  0.333999991      -5.83177610E-15
  0.335000008      -1.05562413E-14
  0.335999995      -1.52163980E-14
  0.337000012      -1.95923989E-14
  0.338000000      -2.34587672E-14
  0.338999987      -2.65949626E-14
  0.340000004      -2.87965859E-14
  0.340999991      -2.98867376E-14
  0.342000008      -2.97269703E-14
  0.342999995      -2.82272357E-14
  0.344000012      -2.53542609E-14
  0.344999999      -2.11377919E-14
  0.345999986      -1.56742295E-14
  0.347000003      -9.12726282E-15
  0.347999990      -1.72522358E-15
  0.349000007       6.24495284E-15
  0.349999994       1.44471430E-14
  0.351000011       2.25086063E-14
  0.351999998       3.00353512E-14
  0.352999985       3.66297399E-14
  0.354000002       4.19096249E-14
  0.354999989       4.55282005E-14
  0.356000006       4.71936401E-14
  0.356999993       4.66875243E-14
  0.358000010       4.38810602E-14
  0.358999997       3.87481354E-14
  0.360000014       3.13743172E-14
  0.361000001       2.19610639E-14
  0.361999989       1.08245576E-14
  0.363000005      -1.61113798E-15
  0.363999993      -1.48267307E-14
  0.365000010      -2.82259262E-14
  0.365999997      -4.11587743E-14
  0.367000014      -5.29493509E-14
  0.368000001      -6.29267621E-14
  0.368999988      -7.04581792E-14
  0.370000005      -7.49824736E-14
  0.370999992      -7.60428368E-14
  0.372000009      -7.33167325E-14
  0.372999996      -6.66415911E-14
  0.374000013      -5.60346345E-14
  0.375000000      -4.17054900E-14
  0.375999987      -2.40604960E-14
  0.377000004      -3.69788666E-15
  0.377999991       1.86065627E-14
  0.379000008       4.19234011E-14
  0.379999995       6.52023872E-14
  0.381000012       8.73134708E-14
  0.381999999       1.07094489E-13
  0.382999986       1.23403769E-13
  0.384000003       1.35175494E-13
  0.384999990       1.41475414E-13
  0.386000007       1.41554235E-13
  0.386999995       1.34896177E-13
  0.388000011       1.21259976E-13
  0.388999999       1.00709927E-13
  0.389999986       7.36349322E-14
  0.391000003       4.07538383E-14
  0.391999990       3.10588855E-15
  0.393000007      -3.79741743E-14
  0.393999994      -8.08961866E-14
  0.395000011      -1.23869041E-13
  0.395999998      -1.64967839E-13
  0.397000015      -2.02211606E-13
  0.398000002      -2.33648496E-13
  0.398999989      -2.57445270E-13
  0.400000006      -2.71977102E-13
  0.400999993      -2.75913732E-13
  0.402000010      -2.68297835E-13
  0.402999997      -2.48611597E-13
  0.404000014      -2.16827912E-13
  0.405000001      -1.73442912E-13
  0.405999988      -1.19487265E-13
  0.407000005      -5.65146210E-14
  0.407999992       1.34335834E-14
  0.409000009       8.78868240E-14
  0.409999996       1.64026277E-13
  0.411000013       2.38785445E-13
  0.412000000       3.08967126E-13
  0.412999988       3.71372638E-13
  0.414000005       4.22938160E-13
  0.414999992       4.60872659E-13
  0.416000009       4.82791324E-13
  0.416999996       4.86838651E-13
  0.418000013       4.71795400E-13
  0.419000000       4.37163652E-13
  0.419999987       3.83225407E-13
  0.421000004       3.11071047E-13
  0.421999991       2.22594838E-13
  0.423000008       1.20456135E-13
  0.423999995       8.00650778E-15
  0.425000012      -1.10815782E-13
  0.425999999      -2.31620794E-13
  0.426999986      -3.49727056E-13
  0.428000003      -4.60340913E-13
  0.428999990      -5.58748523E-13
  0.430000007      -6.40512545E-13
  0.430999994      -7.01665885E-13
  0.432000011      -7.38893538E-13
  0.432999998      -7.49694957E-13
  0.433999985      -7.32519080E-13
  0.435000002      -6.86865116E-13
  0.435999990      -6.13343903E-13
  0.437000006      -5.13695802E-13
  0.437999994      -3.90762455E-13
  0.439000010      -2.48412266E-13
  0.439999998      -9.14211740E-14
  0.441000015       7.46880924E-14
  0.442000002       2.43842734E-13
  0.442999989       4.09645598E-13
  0.444000006       5.65621334E-13
  0.444999993       7.05473711E-13
  0.446000010       8.23343238E-13
  0.446999997       9.14054748E-13
  0.448000014       9.73344452E-13
  0.449000001       9.98056238E-13
  0.449999988       9.86298391E-13
  0.451000005       9.37552987E-13
  0.451999992       8.52732435E-13
  0.453000009       7.34179915E-13
  0.453999996       5.85610987E-13
  0.455000013       4.11998777E-13
  0.456000000       2.19405304E-13
  0.456999987       1.47649024E-14
  0.458000004      -1.94372242E-13
  0.458999991      -4.00127061E-13
  0.460000008      -5.94597668E-13
  0.460999995      -7.70172554E-13
  0.462000012      -9.19838099E-13
  0.463000000      -1.03746753E-12
  0.463999987      -1.11807937E-12
  0.465000004      -1.15805412E-12
  0.465999991      -1.15529971E-12
  0.467000008      -1.10935794E-12
  0.467999995      -1.02144660E-12
  0.469000012      -8.94435025E-13
  0.469999999      -7.32752455E-13
  0.470999986      -5.42232275E-13
  0.472000003      -3.29898110E-13
  0.472999990      -1.03698801E-13
  0.474000007       1.27796563E-13
  0.474999994       3.55732100E-13
  0.476000011       5.71313775E-13
  0.476999998       7.66158946E-13
  0.477999985       9.32632660E-13
  0.479000002       1.06415701E-12
  0.479999989       1.15548033E-12
  0.481000006       1.20289542E-12
  0.481999993       1.20439715E-12
  0.483000010       1.15977247E-12
  0.483999997       1.07061929E-12
  0.485000014       9.40292657E-13
  0.486000001       7.73779478E-13
  0.486999989       5.77507714E-13
  0.488000005       3.59096379E-13
  0.488999993       1.27056731E-13
  0.490000010      -1.09543342E-13
  0.490999997      -3.41438385E-13
  0.492000014      -5.59533377E-13
  0.493000001      -7.55265696E-13
  0.493999988      -9.20946696E-13
  0.495000005      -1.05006824E-12
  0.495999992      -1.13756292E-12
  0.497000009      -1.18000629E-12
  0.497999996      -1.17575372E-12
  0.499000013      -1.12500580E-12
  0.500000000      -1.02980038E-12
  0.500999987      -8.93931142E-13
  0.501999974      -7.22796009E-13
  0.503000021      -5.23181921E-13
  0.504000008      -3.02994934E-13
  0.504999995      -7.09461380E-14
  0.505999982       1.63793485E-13
  0.507000029       3.91955728E-13
  0.508000016       6.04540344E-13
  0.509000003       7.93168536E-13
  0.509999990       9.50410649E-13
  0.510999978       1.07007513E-12
  0.512000024       1.14744748E-12
  0.513000011       1.17947037E-12
  0.513999999       1.16485760E-12
  0.514999986       1.10413859E-12
  0.515999973       9.99631584E-13
  0.517000020       8.55347477E-13
  0.518000007       6.76828602E-13
  0.518999994       4.70929014E-13
  0.519999981       2.45545880E-13
  0.521000028       9.31241575E-15
  0.522000015      -2.28735054E-13
  0.523000002      -4.59503095E-13
  0.523999989      -6.74186510E-13
  0.524999976      -8.64599950E-13
  0.526000023      -1.02348306E-12
  0.527000010      -1.14476842E-12
  0.527999997      -1.22380177E-12
  0.528999984      -1.25750755E-12
  0.529999971      -1.24449409E-12
  0.531000018      -1.18509456E-12
  0.532000005      -1.08134454E-12
  0.532999992      -9.36897044E-13
  0.533999979      -7.56878718E-13
  0.535000026      -5.47694485E-13
  0.536000013      -3.16787937E-13
  0.537000000      -7.23670256E-14
  0.537999988       1.76894212E-13
  0.538999975       4.22167021E-13
  0.540000021       6.54780754E-13
  0.541000009       8.66526198E-13
  0.541999996       1.04993856E-12
  0.542999983       1.19855113E-12
  0.544000030       1.30711045E-12
  0.545000017       1.37174733E-12
  0.546000004       1.39009800E-12
  0.546999991       1.36137249E-12
  0.547999978       1.28636912E-12
  0.549000025       1.16743572E-12
  0.550000012       1.00837979E-12
  0.550999999       8.14332163E-13
  0.551999986       5.91569220E-13
  0.552999973       3.47300422E-13
  0.554000020       8.94288848E-14
  0.555000007      -1.73706752E-13
  0.555999994      -4.33600990E-13
  0.556999981      -6.81851711E-13
  0.558000028      -9.10423646E-13
  0.559000015      -1.11189747E-12
  0.560000002      -1.27969694E-12
  0.560999990      -1.40828831E-12
  0.561999977      -1.49334603E-12
  0.563000023      -1.53188096E-12
  0.564000010      -1.52232805E-12
  0.564999998      -1.46459212E-12
  0.565999985      -1.36005031E-12
  0.566999972      -1.21151234E-12
  0.568000019      -1.02314012E-12
  0.569000006      -8.00329529E-13
  0.569999993      -5.49557904E-13
  0.570999980      -2.78201453E-13
  0.572000027       5.67245090E-15
  0.573000014       2.93532505E-13
  0.574000001       5.76624252E-13
  0.574999988       8.46218495E-13
  0.575999975       1.09386090E-12
  0.577000022       1.31161640E-12
  0.578000009       1.49230281E-12
  0.578999996       1.62970700E-12
  0.579999983       1.71877855E-12
  0.580999970       1.75579538E-12
  0.582000017       1.73849704E-12
  0.583000004       1.66618130E-12
  0.583999991       1.53976094E-12
  0.584999979       1.36177820E-12
  0.586000025       1.13637528E-12
  0.587000012       8.69220548E-13
  0.588000000       5.67390319E-13
  0.588999987       2.39207796E-13
  0.589999974      -1.05957696E-13
  0.591000021      -4.57928292E-13
  0.592000008      -8.05986625E-13
  0.592999995      -1.13917079E-12
  0.593999982      -1.44658808E-12
  0.595000029      -1.71773988E-12
  0.596000016      -1.94284909E-12
  0.597000003      -2.11318137E-12
  0.597999990      -2.22135027E-12
  0.598999977      -2.26159629E-12
  0.600000024      -2.23003105E-12
  0.601000011      -2.12483785E-12
  0.601999998      -1.94641894E-12
  0.602999985      -1.69748319E-12
  0.603999972      -1.38306760E-12
  0.605000019      -1.01048835E-12
  0.606000006      -5.89219320E-13
  0.606999993      -1.30697455E-13
  0.607999980       3.51943951E-13
  0.609000027       8.44208709E-13
  0.610000014       1.33063189E-12
  0.611000001       1.79522597E-12
  0.611999989       2.22196653E-12
  0.612999976       2.59530526E-12
  0.614000022       2.90069488E-12
  0.615000010       3.12510955E-12
  0.615999997       3.25754332E-12
  0.616999984       3.28946874E-12
  0.617999971       3.21523884E-12
  0.619000018       3.03241503E-12
  0.620000005       2.74200562E-12
  0.620999992       2.34860287E-12
  0.621999979       1.86040723E-12
  0.623000026       1.28913156E-12
  0.624000013       6.49782745E-13
  0.625000000      -3.96796311E-14
  0.625999987      -7.58802851E-13
  0.626999974      -1.48520833E-12
  0.628000021      -2.19525353E-12
  0.629000008      -2.86477179E-12
  0.629999995      -3.46986567E-12
  0.630999982      -3.98773245E-12
  0.632000029      -4.39749192E-12
  0.633000016      -4.68098867E-12
  0.634000003      -4.82353784E-12
  0.634999990      -4.81458753E-12
  0.635999978      -4.64826788E-12
  0.637000024      -4.32380173E-12
  0.638000011      -3.84575705E-12
  0.638999999      -3.22412171E-12
  0.639999986      -2.47419077E-12
  0.640999973      -1.61626116E-12
  0.642000020      -6.75134482E-13
  0.643000007       3.20562207E-13
  0.643999994       1.33922149E-12
  0.644999981       2.34724414E-12
  0.646000028       3.31014166E-12
  0.647000015       4.19371699E-12
  0.648000002       4.96528556E-12
  0.648999989       5.59488957E-12
  0.649999976       6.05646609E-12
  0.651000023       6.32891959E-12
  0.652000010       6.39705693E-12
  0.652999997       6.25234500E-12
  0.653999984       5.89345413E-12
  0.654999971       5.32655951E-12
  0.656000018       4.56538019E-12
  0.657000005       3.63094233E-12
  0.657999992       2.55106526E-12
  0.658999979       1.35958074E-12
  0.660000026       9.53027262E-14
  0.661000013      -1.19922301E-12
  0.662000000      -2.47914883E-12
  0.662999988      -3.69888755E-12
  0.663999975      -4.81375486E-12
  0.665000021      -5.78163038E-12
  0.666000009      -6.56457571E-12
  0.666999996      -7.13034709E-12
  0.667999983      -7.45374162E-12
  0.669000030      -7.51772082E-12
  0.670000017      -7.31426031E-12
  0.671000004      -6.84488794E-12
  0.671999991      -6.12087551E-12
  0.672999978      -5.16307223E-12
  0.674000025      -4.00137128E-12
  0.675000012      -2.67382167E-12
  0.675999999      -1.22540910E-12
  0.676999986       2.93456177E-13
  0.677999973       1.82869431E-12
  0.679000020       3.32449281E-12
  0.680000007       4.72535422E-12
  0.680999994       5.97817889E-12
  0.681999981       7.03430500E-12
  0.683000028       7.85142350E-12
  0.684000015       8.39529141E-12
  0.685000002       8.64117198E-12
  0.685999990       8.57494371E-12
  0.686999977       8.19382322E-12
  0.688000023       7.50666890E-12
  0.689000010       6.53384421E-12
  0.689999998       5.30663707E-12
  0.690999985       3.86625107E-12
  0.691999972       2.26239925E-12
  0.693000019       5.51547957E-13
  0.694000006      -1.20512584E-12
  0.694999993      -2.94398837E-12
  0.695999980      -4.60132930E-12
  0.697000027      -6.11577672E-12
  0.698000014      -7.43065331E-12
  0.699000001      -8.49618032E-12
  0.699999988      -9.27143605E-12
  0.700999975      -9.72599865E-12
  0.702000022      -9.84119383E-12
  0.703000009      -9.61090062E-12
  0.703999996      -9.04187576E-12
  0.704999983      -8.15357851E-12
  0.705999970      -6.97750061E-12
  0.707000017      -5.55602222E-12
  0.708000004      -3.94083377E-12
  0.708999991      -2.19098307E-12
  0.709999979      -3.70625947E-13
  0.711000025       1.45343633E-12
  0.712000012       3.21433245E-12
  0.713000000       4.84771034E-12
  0.713999987       6.29423250E-12
  0.714999974       7.50188106E-12
  0.716000021       8.42797707E-12
  0.717000008       9.04083232E-12
  0.717999995       9.32096674E-12
  0.718999982       9.26183956E-12
  0.720000029       8.87006267E-12
  0.721000016       8.16509100E-12
  0.722000003       7.17839893E-12
  0.722999990       5.95217235E-12
  0.723999977       4.53757431E-12
  0.725000024       2.99265343E-12
  0.726000011       1.37997881E-12
  0.726999998      -2.35901142E-13
  0.727999985      -1.79107196E-12
  0.728999972      -3.22483099E-12
  0.730000019      -4.48212474E-12
  0.731000006      -5.51574324E-12
  0.731999993      -6.28818785E-12
  0.732999980      -6.77312763E-12
  0.734000027      -6.95638946E-12
  0.735000014      -6.83644460E-12
  0.736000001      -6.42436668E-12
  0.736999989      -5.74326741E-12
  0.737999976      -4.82723583E-12
  0.739000022      -3.71982306E-12
  0.740000010      -2.47213968E-12
  0.740999997      -1.14064509E-12
  0.741999984       2.15280213E-13
  0.742999971       1.53587429E-12
  0.744000018       2.76354135E-12
  0.745000005       3.84529995E-12
  0.745999992       4.73503138E-12
  0.746999979       5.39543063E-12
  0.748000026       5.79958477E-12
  0.749000013       5.93210940E-12
  0.750000000       5.78979703E-12
  0.750999987       5.38175234E-12
  0.751999974       4.72900885E-12
  0.753000021       3.86364248E-12
  0.754000008       2.82742363E-12
  0.754999995       1.67005819E-12
  0.755999982       4.47096136E-13
  0.757000029      -7.82406258E-13
  0.758000016      -1.95837639E-12
  0.759000003      -3.02226104E-12
  0.759999990      -3.91950621E-12
  0.760999978      -4.60187487E-12
  0.762000024      -5.02951023E-12
  0.763000011      -5.17266048E-12
  0.763999999      -5.01299479E-12
  0.764999986      -4.54445379E-12
  0.765999973      -3.77360079E-12
  0.767000020      -2.71946398E-12
  0.768000007      -1.41287025E-12
  0.768999994       1.04698585E-13
  0.769999981       1.78268099E-12
  0.771000028       3.56338201E-12
  0.772000015       5.38421087E-12
  0.773000002       7.18011891E-12
  0.773999989       8.88614182E-12
  0.774999976       1.04399475E-11
  0.776000023       1.17842880E-11
  0.777000010       1.28692543E-11
  0.777999997       1.36542522E-11
  0.778999984       1.41096215E-11
  0.779999971       1.42178309E-11
  0.781000018       1.39742089E-11
  0.782000005       1.33871811E-11
  0.782999992       1.24780013E-11
  0.783999979       1.12799969E-11
  0.785000026       9.83735315E-12
  0.786000013       8.20348216E-12
  0.787000000       6.43904765E-12
  0.787999988       4.60971235E-12
  0.788999975       2.78370231E-12
  0.790000021       1.02927909E-12
  0.791000009      -5.87785842E-13
  0.791999996      -2.00663835E-12
  0.792999983      -3.17357989E-12
  0.794000030      -4.04403204E-12
  0.795000017      -4.58415814E-12
  0.796000004      -4.77208160E-12
  0.796999991      -4.59865089E-12
  0.797999978      -4.06773747E-12
  0.799000025      -3.19605063E-12
  0.800000012      -2.01247352E-12
  0.800999999      -5.56956174E-13
  0.801999986       1.12099566E-12
  0.802999973       2.96417188E-12
  0.804000020       4.90979132E-12
  0.805000007       6.89183216E-12
  0.805999994       8.84345548E-12
  0.806999981       1.06994630E-11
  0.808000028       1.23986784E-11
  0.809000015       1.38861674E-11
  0.810000002       1.51152233E-11
  0.810999990       1.60490319E-11
  0.811999977       1.66619739E-11
  0.813000023       1.69405098E-11
  0.814000010       1.68836160E-11
  0.814999998       1.65027627E-11
  0.815999985       1.58214327E-11
  0.816999972       1.48742043E-11
  0.818000019       1.37054266E-11
  0.819000006       1.23675488E-11
  0.819999993       1.09191614E-11
  0.820999980       9.42282103E-12
  0.822000027       7.94273588E-12
  0.823000014       6.54240030E-12
  0.824000001       5.28227635E-12
  0.824999988       4.21759155E-12
  0.825999975       3.39633573E-12
  0.827000022       2.85753734E-12
  0.828000009       2.62988242E-12
  0.828999996       2.73070759E-12
  0.829999983       3.16542105E-12
  0.830999970       3.92737015E-12
  0.832000017       4.99814469E-12
  0.833000004       6.34831727E-12
  0.833999991       7.93857601E-12
  0.834999979       9.72122296E-12
  0.836000025       1.16419686E-11
  0.837000012       1.36419582E-11
  0.838000000       1.56599525E-11
  0.838999987       1.76345761E-11
  0.839999974       1.95065561E-11
  0.841000021       2.12208671E-11
  0.842000008       2.27286939E-11
  0.842999995       2.39891475E-11
  0.843999982       2.49706766E-11
  0.845000029       2.56521193E-11
  0.846000016       2.60233363E-11
  0.847000003       2.60854428E-11
  0.847999990       2.58506220E-11
  0.848999977       2.53415171E-11
  0.850000024       2.45902500E-11
  0.851000011       2.36370888E-11
  0.851999998       2.25288364E-11
  0.852999985       2.13170020E-11
  0.853999972       2.00558233E-11
  0.855000019       1.88002374E-11
  0.856000006       1.76038437E-11