   0.00000000       0.00000000    
   1.00000005E-03   0.00000000    
   2.00000009E-03   0.00000000    
   3.00000003E-03   0.00000000    
   4.00000019E-03   0.00000000    
   4.99999989E-03   0.00000000    
   6.00000005E-03   0.00000000    
   7.00000022E-03   0.00000000    
   8.00000038E-03   0.00000000    
   8.99999961E-03   0.00000000    
   9.99999978E-03   0.00000000    
   1.09999999E-02   0.00000000    
   1.20000001E-02   0.00000000    
   1.30000003E-02   0.00000000    
   1.40000004E-02   0.00000000    
   1.49999997E-02   0.00000000    
   1.60000008E-02   0.00000000    
   1.70000009E-02  -1.33144233E-38
   1.79999992E-02  -8.95132980E-38
   1.89999994E-02  -2.86036406E-37
   1.99999996E-02  -7.28408125E-37
   2.09999997E-02  -1.58816612E-36
   2.19999999E-02  -2.99996594E-36
   2.30000000E-02  -4.70232573E-36
   2.40000002E-02  -4.91342684E-36
   2.50000004E-02   2.20582943E-36
   2.60000005E-02   3.20989051E-35
   2.70000007E-02   1.20804912E-34
   2.80000009E-02   3.45412288E-34
   2.89999992E-02   8.60154491E-34
   2.99999993E-02   1.95707154E-33
   3.09999995E-02   4.16271349E-33
   3.20000015E-02   8.38543009E-33
   3.29999998E-02   1.61295781E-32
   3.40000018E-02   2.97919933E-32
   3.50000001E-02   5.30502834E-32
   3.59999985E-02   9.13396315E-32
   3.70000005E-02   1.52390700E-31
   3.79999988E-02   2.46763183E-31
   3.90000008E-02   3.88253676E-31
   3.99999991E-02   5.93981997E-31
   4.10000011E-02   8.83866992E-31
   4.19999994E-02   1.27909810E-30
   4.30000015E-02   1.79910106E-30
   4.39999998E-02   2.45641023E-30
   4.50000018E-02   3.24882038E-30
   4.60000001E-02   4.14823869E-30
   4.69999984E-02   5.08584609E-30
   4.80000004E-02   5.93356221E-30
   4.89999987E-02   6.48243870E-30
   5.00000007E-02   6.41954655E-30
   5.09999990E-02   5.30620783E-30
   5.20000011E-02   2.56202003E-30
   5.29999994E-02  -2.53899294E-30
   5.40000014E-02  -1.08517441E-29
   5.49999997E-02  -2.33126793E-29
   5.60000017E-02  -4.08498107E-29
   5.70000000E-02  -6.42377863E-29
   5.79999983E-02  -9.38864065E-29
   5.90000004E-02  -1.29554009E-28
   5.99999987E-02  -1.69982830E-28
   6.10000007E-02  -2.12462741E-28
   6.19999990E-02  -2.52342997E-28
   6.30000010E-02  -2.82529108E-28
   6.40000030E-02  -2.93023476E-28
   6.49999976E-02  -2.70593446E-28
   6.59999996E-02  -1.98676646E-28
   6.70000017E-02  -5.76595319E-29
   6.80000037E-02   1.74313632E-28
   6.89999983E-02   5.19831507E-28
   7.00000003E-02   9.99838634E-28
   7.10000023E-02   1.63024519E-27
   7.19999969E-02   2.41742688E-27
   7.29999989E-02   3.35260492E-27
   7.40000010E-02   4.40521269E-27
   7.50000030E-02   5.51551900E-27
   7.59999976E-02   6.58698317E-27
   7.69999996E-02   7.47904926E-27
   7.80000016E-02   8.00134452E-27
   7.90000036E-02   7.91052768E-27
   7.99999982E-02   6.91124814E-27
   8.10000002E-02   4.66290096E-27
   8.20000023E-02   7.93926871E-28
   8.29999968E-02  -5.07461124E-27
   8.39999989E-02  -1.32947021E-26
   8.50000009E-02  -2.41452928E-26
   8.60000029E-02  -3.77741515E-26
   8.69999975E-02  -5.41285045E-26
   8.79999995E-02  -7.28765605E-26
   8.90000015E-02  -9.33238105E-26
   9.00000036E-02  -1.14329784E-25
   9.09999982E-02  -1.34233102E-25
   9.20000002E-02  -1.50794669E-25
   9.30000022E-02  -1.61170902E-25
   9.39999968E-02  -1.61930119E-25
   9.49999988E-02  -1.49126303E-25
   9.60000008E-02  -1.18444297E-25
   9.70000029E-02  -6.54288137E-26
   9.79999974E-02   1.41930236E-26
   9.89999995E-02   1.24090742E-25
  0.100000001       2.66813170E-25
  0.101000004       4.43185261E-25
  0.101999998       6.51640276E-25
  0.103000000       8.87520386E-25
  0.104000002       1.14239257E-24
  0.104999997       1.40343887E-24
  0.105999999       1.65299373E-24
  0.107000001       1.86831135E-24
  0.108000003       2.02165052E-24
  0.108999997       2.08077052E-24
  0.109999999       2.00992253E-24
  0.111000001       1.77141063E-24
  0.112000003       1.32777084E-24
  0.112999998       6.44587022E-25
  0.114000000      -3.06082912E-25
  0.115000002      -1.54175084E-24
  0.115999997      -3.06515257E-24
  0.116999999      -4.85972475E-24
  0.118000001      -6.88518114E-24
  0.119000003      -9.07353966E-24
  0.119999997      -1.13260050E-23
  0.120999999      -1.35111678E-23
  0.122000001      -1.54649854E-23
  0.123000003      -1.69930389E-23
  0.123999998      -1.78754698E-23
  0.125000000      -1.78749696E-23
  0.126000002      -1.67480361E-23
  0.127000004      -1.42595349E-23
  0.128000006      -1.02004117E-23
  0.128999993      -4.40808847E-24
  0.129999995       3.21115456E-24
  0.130999997       1.26588746E-23
  0.131999999       2.38215783E-23
  0.133000001       3.64499019E-23
  0.134000003       5.01417315E-23
  0.135000005       6.43312976E-23
  0.136000007       7.82863732E-23
  0.136999995       9.11155613E-23
  0.137999997       1.01787524E-22
  0.138999999       1.09163506E-22
  0.140000001       1.12043934E-22
  0.141000003       1.09229278E-22
  0.142000005       9.95940111E-23
  0.143000007       8.21720054E-23
  0.143999994       5.62499667E-23
  0.144999996       2.14647206E-23
  0.145999998      -2.21012004E-23
  0.147000000      -7.38321427E-23
  0.148000002      -1.32507478E-22
  0.149000004      -1.96252930E-22
  0.150000006      -2.62522938E-22
  0.150999993      -3.28121481E-22
  0.151999995      -3.89267263E-22
  0.152999997      -4.41708086E-22
  0.153999999      -4.80886478E-22
  0.155000001      -5.02155733E-22
  0.156000003      -5.01042139E-22
  0.157000005      -4.73545250E-22
  0.158000007      -4.16464335E-22
  0.158999994      -3.27734573E-22
  0.159999996      -2.06753072E-22
  0.160999998      -5.46723584E-23
  0.162000000       1.25364298E-22
  0.163000003       3.28070994E-22
  0.164000005       5.45975959E-22
  0.165000007       7.69509403E-22
  0.165999994       9.87240162E-22
  0.166999996       1.18627252E-21
  0.167999998       1.35280532E-21
  0.169000000       1.47284638E-21
  0.170000002       1.53306203E-21
  0.171000004       1.52172920E-21
  0.172000006       1.42974635E-21
  0.172999993       1.25164463E-21
  0.173999995       9.86532535E-22
  0.174999997       6.38898725E-22
  0.175999999       2.19192967E-22
  0.177000001      -2.55894209E-22
  0.178000003      -7.63526076E-22
  0.179000005      -1.27525048E-21
  0.180000007      -1.75800962E-21
  0.180999994      -2.17564920E-21
  0.181999996      -2.49091345E-21
  0.182999998      -2.66788184E-21
  0.184000000      -2.67476162E-21
  0.185000002      -2.48690963E-21
  0.186000004      -2.08992372E-21
  0.187000006      -1.48259998E-21
  0.187999994      -6.79531297E-22
  0.188999996       2.86900507E-22
  0.189999998       1.36539085E-21
  0.191000000       2.48567976E-21
  0.192000002       3.55983558E-21
  0.193000004       4.48502215E-21
  0.194000006       5.14785514E-21
  0.194999993       5.43035954E-21
  0.195999995       5.21744777E-21
  0.196999997       4.40571136E-21
  0.197999999       2.91321036E-21
  0.199000001       6.89800726E-22
  0.200000003      -2.27256463E-21
  0.201000005      -5.93023956E-21
  0.202000007      -1.01797531E-20
  0.202999994      -1.48519487E-20
  0.203999996      -1.97092082E-20
  0.204999998      -2.44465459E-20
  0.206000000      -2.86972284E-20
  0.207000002      -3.20434680E-20
  0.208000004      -3.40324722E-20
  0.209000006      -3.41978728E-20
  0.209999993      -3.20862810E-20
  0.210999995      -2.72882587E-20
  0.211999997      -1.94726863E-20
  0.213000000      -8.42310586E-21
  0.214000002       5.92581447E-21
  0.215000004       2.34538015E-20
  0.216000006       4.38249174E-20
  0.216999993       6.64644727E-20
  0.217999995       9.05455486E-20
  0.218999997       1.14987618E-19
  0.219999999       1.38469492E-19
  0.221000001       1.59458502E-19
  0.222000003       1.76256963E-19
  0.223000005       1.87066456E-19
  0.224000007       1.90069251E-19
  0.224999994       1.83525464E-19
  0.225999996       1.65883020E-19
  0.226999998       1.35896637E-19
  0.228000000       9.27507216E-20
  0.229000002       3.61801368E-20
  0.230000004      -3.34181808E-20
  0.231000006      -1.14890230E-19
  0.231999993      -2.06254616E-19
  0.232999995      -3.04664397E-19
  0.233999997      -4.06408569E-19
  0.234999999      -5.06959404E-19
  0.236000001      -6.01070223E-19
  0.237000003      -6.82926724E-19
  0.238000005      -7.46351573E-19
  0.238999993      -7.85060576E-19
  0.239999995      -7.92964545E-19
  0.240999997      -7.64507929E-19
  0.241999999      -6.95032409E-19
  0.243000001      -5.81150887E-19
  0.244000003      -4.21113100E-19
  0.245000005      -2.15144029E-19
  0.246000007       3.42670167E-20
  0.246999994       3.22147738E-19
  0.247999996       6.40916599E-19
  0.248999998       9.80367638E-19
  0.250000000       1.32778350E-18
  0.250999987       1.66818858E-18
  0.252000004       1.98474957E-18
  0.252999991       2.25932183E-18
  0.254000008       2.47313768E-18
  0.254999995       2.60761802E-18
  0.256000012       2.64528679E-18
  0.256999999       2.57075347E-18
  0.257999986       2.37172865E-18
  0.259000003       2.04002178E-18
  0.259999990       1.57247489E-18
  0.261000007       9.71775816E-19
  0.261999995       2.47095780E-19
  0.263000011      -5.85500668E-19
  0.263999999      -1.50292265E-18
  0.264999986      -2.47523707E-18
  0.266000003      -3.46620110E-18
  0.266999990      -4.43415875E-18
  0.268000007      -5.33330407E-18
  0.268999994      -6.11529209E-18
  0.270000011      -6.73116528E-18
  0.270999998      -7.13353695E-18
  0.272000015      -7.27895943E-18
  0.273000002      -7.13038787E-18
  0.273999989      -6.65962698E-18
  0.275000006      -5.84964924E-18
  0.275999993      -4.69665749E-18
  0.277000010      -3.21176427E-18
  0.277999997      -1.42216584E-18
  0.279000014       6.28296822E-19
  0.280000001       2.87928977E-18
  0.280999988       5.25491713E-18
  0.282000005       7.66547364E-18
  0.282999992       1.00100228E-17
  0.284000009       1.21797696E-17
  0.284999996       1.40621531E-17
  0.286000013       1.55455461E-17
  0.287000000       1.65243919E-17
  0.287999988       1.69046055E-17
  0.289000005       1.66089926E-17
  0.289999992       1.55824499E-17
  0.291000009       1.37966753E-17
  0.291999996       1.12541256E-17
  0.293000013       7.99095266E-18
  0.294000000       4.07869525E-18
  0.294999987      -3.75487756E-19
  0.296000004      -5.23018443E-18
  0.296999991      -1.03127949E-17
  0.298000008      -1.54243128E-17
  0.298999995      -2.03457645E-17
  0.300000012      -2.48461696E-17
  0.300999999      -2.86917853E-17
  0.301999986      -3.16563443E-17
  0.303000003      -3.35318903E-17
  0.303999990      -3.41397854E-17
  0.305000007      -3.33413675E-17
  0.305999994      -3.10477809E-17
  0.307000011      -2.72283969E-17
  0.307999998      -2.19173663E-17
  0.308999985      -1.52178072E-17
  0.310000002      -7.30322809E-18
  0.310999990       1.58410474E-18
  0.312000006       1.11380622E-17
  0.312999994       2.09968598E-17
  0.314000010       3.07544825E-17
  0.314999998       3.99750880E-17
  0.316000015       4.82099655E-17
  0.317000002       5.50165138E-17
  0.317999989       5.99785287E-17
  0.319000006       6.27269654E-17
  0.319999993       6.29603031E-17
  0.321000010       6.04635544E-17
  0.321999997       5.51248943E-17
  0.323000014       4.69490279E-17
  0.324000001       3.60663684E-17
  0.324999988       2.27373388E-17
  0.326000005       7.35116651E-18
  0.326999992      -9.58118754E-18
  0.328000009      -2.74401005E-17
  0.328999996      -4.55162319E-17
  0.330000013      -6.30349346E-17
  0.331000000      -7.91854839E-17
  0.331999987      -9.31541226E-17
  0.333000004      -1.04159714E-16
  0.333999991      -1.11490725E-16
  0.335000008      -1.14541791E-16
  0.335999995      -1.12848294E-16
  0.337000012      -1.06117320E-16
  0.338000000      -9.42532206E-17
  0.338999987      -7.73763274E-17
  0.340000004      -5.58335134E-17
  0.340999991      -3.01994874E-17
  0.342000008      -1.26817789E-18
  0.342999995       2.99661165E-17
  0.344000012       6.23377008E-17
  0.344999999       9.45479418E-17
  0.345999986       1.25212209E-16
  0.347000003       1.52913733E-16
  0.347999990       1.76262514E-16
  0.349000007       1.93956966E-16
  0.349999994       2.04845852E-16
  0.351000011       2.07987670E-16
  0.351999998       2.02704805E-16
  0.352999985       1.88629817E-16
  0.354000002       1.65741200E-16
  0.354999989       1.34386449E-16
  0.356000006       9.52907433E-17
  0.356999993       4.95498525E-17
  0.358000010      -1.39321514E-18
  0.358999997      -5.57879192E-17
  0.360000014      -1.11631359E-16
  0.361000001      -1.66737456E-16
  0.361999989      -2.18817978E-16
  0.363000005      -2.65572463E-16
  0.363999993      -3.04783789E-16
  0.365000010      -3.34415516E-16
  0.365999997      -3.52706796E-16
  0.367000014      -3.58260897E-16
  0.368000001      -3.50122895E-16
  0.368999988      -3.27842858E-16
  0.370000005      -2.91520974E-16
  0.370999992      -2.41831771E-16
  0.372000009      -1.80025630E-16
  0.372999996      -1.07905823E-16
  0.374000013      -2.77815392E-17
  0.375000000       5.76026212E-17
  0.375999987       1.45158657E-16
  0.377000004       2.31565705E-16
  0.377999991       3.13395335E-16
  0.379000008       3.87246814E-16
  0.379999995       4.49887097E-16
  0.381000012       4.98389898E-16
  0.381999999       5.30267560E-16
  0.382999986       5.43590329E-16
  0.384000003       5.37087128E-16
  0.384999990       5.10223160E-16
  0.386000007       4.63249677E-16
  0.386999995       3.97223459E-16
  0.388000011       3.13993393E-16
  0.388999999       2.16154126E-16
  0.389999986       1.06967205E-16
  0.391000003      -9.74798768E-18
  0.391999990      -1.29749751E-16
  0.393000007      -2.48531431E-16
  0.393999994      -3.61494630E-16
  0.395000011      -4.64131386E-16
  0.395999998      -5.52208148E-16
  0.397000015      -6.21943788E-16
  0.398000002      -6.70174003E-16
  0.398999989      -6.94494860E-16
  0.400000006      -6.93379477E-16
  0.400999993      -6.66261134E-16
  0.402000010      -6.13579867E-16
  0.402999997      -5.36788866E-16
  0.404000014      -4.38319963E-16
  0.405000001      -3.21508455E-16
  0.405999988      -1.90479962E-16
  0.407000005      -5.00028133E-17
  0.407999992       9.46882515E-17
  0.409000009       2.38090347E-16
  0.409999996       3.74644896E-16
  0.411000013       4.98955822E-16
  0.412000000       6.06004428E-16
  0.412999988       6.91352262E-16
  0.414000005       7.51323518E-16
  0.414999992       7.83159357E-16
  0.416000009       7.85137603E-16
  0.416999996       7.56652732E-16
  0.418000013       6.98252722E-16
  0.419000000       6.11630950E-16
  0.419999987       4.99573627E-16
  0.421000004       3.65864473E-16
  0.421999991       2.15150921E-16
  0.423000008       5.27768164E-17
  0.423999995      -1.15411455E-16
  0.425000012      -2.83277490E-16
  0.425999999      -4.44617758E-16
  0.426999986      -5.93385967E-16
  0.428000003      -7.23910144E-16
  0.428999990      -8.31094381E-16
  0.430000007      -9.10597794E-16
  0.430999994      -9.58984127E-16
  0.432000011      -9.73837379E-16
  0.432999998      -9.53840626E-16
  0.433999985      -8.98814718E-16
  0.435000002      -8.09718552E-16
  0.435999990      -6.88611528E-16
  0.437000006      -5.38581400E-16
  0.437999994      -3.63641885E-16
  0.439000010      -1.68604873E-16
  0.439999998       4.10667017E-17
  0.441000015       2.59419246E-16
  0.442000002       4.80175990E-16
  0.442999989       6.96905939E-16
  0.444000006       9.03189008E-16
  0.444999993       1.09277256E-15
  0.446000010       1.25971767E-15
  0.446999997       1.39853006E-15
  0.448000014       1.50427705E-15
  0.449000001       1.57268936E-15
  0.449999988       1.60024821E-15
  0.451000005       1.58425919E-15
  0.451999992       1.52291516E-15
  0.453000009       1.41534875E-15
  0.453999996       1.26167770E-15
  0.455000013       1.06304255E-15
  0.456000000       8.21637576E-16
  0.456999987       5.40735404E-16
  0.458000004       2.24701641E-16
  0.458999991      -1.21001687E-16
  0.460000008      -4.89828089E-16
  0.460999995      -8.74178659E-16
  0.462000012      -1.26545939E-15
  0.463000000      -1.65416927E-15
  0.463999987      -2.03002373E-15
  0.465000004      -2.38211859E-15
  0.465999991      -2.69913740E-15
  0.467000008      -2.96960349E-15
  0.467999995      -3.18217679E-15
  0.469000012      -3.32599133E-15
  0.469999999      -3.39102737E-15
  0.470999986      -3.36851027E-15
  0.472000003      -3.25132347E-15
  0.472999990      -3.03441972E-15
  0.474000007      -2.71521599E-15
  0.474999994      -2.29395157E-15
  0.476000011      -1.77399034E-15
  0.476999998      -1.16204598E-15
  0.477999985      -4.68313293E-16
  0.479000002       2.93513830E-16
  0.479999989       1.10635103E-15
  0.481000006       1.94996937E-15
  0.481999993       2.80138423E-15
  0.483000010       3.63538579E-15
  0.483999997       4.42520590E-15
  0.485000014       5.14330899E-15
  0.486000001       5.76228383E-15
  0.486999989       6.25581308E-15
  0.488000005       6.59968855E-15
  0.488999993       6.77283437E-15
  0.490000010       6.75829716E-15
  0.490999997       6.54416257E-15
  0.492000014       6.12435441E-15
  0.493000001       5.49927247E-15
  0.493999988       4.67623809E-15
  0.495000005       3.66970502E-15
  0.495999992       2.50121862E-15
  0.497000009       1.19910272E-15
  0.497999996      -2.02133124E-16
  0.499000013      -1.66265802E-15
  0.500000000      -3.13844215E-15
  0.500999987      -4.58260833E-15
  0.501999974      -5.94697216E-15
  0.503000021      -7.18372370E-15
  0.504000008      -8.24718711E-15
  0.504999995      -9.09559988E-15
  0.505999982      -9.69283434E-15
  0.507000029      -1.00099957E-14
  0.508000016      -1.00268203E-14
  0.509000003      -9.73281599E-15
  0.509999990      -9.12807936E-15
  0.510999978      -8.22373955E-15
  0.512000024      -7.04200195E-15
  0.513000011      -5.61576237E-15
  0.513999999      -3.98778792E-15
  0.514999986      -2.20948523E-15
  0.515999973      -3.39275897E-16
  0.517000020       1.55936172E-15
  0.518000007       3.42012909E-15
  0.518999994       5.17633693E-15
  0.519999981       6.76344500E-15
  0.521000028       8.12160516E-15
  0.522000015       9.19811712E-15
  0.523000002       9.94968437E-15
  0.523999989       1.03443772E-14
  0.524999976       1.03632126E-14
  0.526000023       1.00012712E-14
  0.527000010       9.26829550E-15
  0.527999997       8.18872151E-15
  0.528999984       6.80112357E-15
  0.529999971       5.15708005E-15
  0.531000018       3.31948337E-15
  0.532000005       1.36034487E-15
  0.532999992      -6.41830163E-16
  0.533999979      -2.60500875E-15
  0.535000026      -4.44682302E-15
  0.536000013      -6.08787101E-15
  0.537000000      -7.45499447E-15
  0.537999988      -8.48439954E-15
  0.538999975      -9.12448963E-15
  0.540000021      -9.33828837E-15
  0.541000009      -9.10534414E-15
  0.541999996      -8.42302522E-15
  0.542999983      -7.30713640E-15
  0.544000030      -5.79181266E-15
  0.545000017      -3.92867772E-15
  0.546000004      -1.78528435E-15
  0.546999991       5.57125068E-16
  0.547999978       3.00645980E-15
  0.549000025       5.46312619E-15
  0.550000012       7.82375788E-15
  0.550999999       9.98518861E-15
  0.551999986       1.18485162E-14
  0.552999973       1.33231024E-14
  0.554000020       1.43303423E-14
  0.555000007       1.48070541E-14
  0.555999994       1.47083612E-14
  0.556999981       1.40099063E-14
  0.558000028       1.27093499E-14
  0.559000015       1.08270394E-14
  0.560000002       8.40583130E-15
  0.560999990       5.51004970E-15
  0.561999977       2.22361628E-15
  0.563000023      -1.35259875E-15
  0.564000010      -5.10410534E-15
  0.564999998      -8.90668866E-15
  0.565999985      -1.26307232E-14
  0.566999972      -1.61457541E-14
  0.568000019      -1.93251651E-14
  0.569000006      -2.20507731E-14
  0.569999993      -2.42171497E-14
  0.570999980      -2.57355325E-14
  0.572000027      -2.65371628E-14
  0.573000014      -2.65759264E-14
  0.574000001      -2.58301850E-14
  0.574999988      -2.43037503E-14
  0.575999975      -2.20259483E-14
  0.577000022      -1.90507722E-14
  0.578000009      -1.54551546E-14
  0.578999996      -1.13364433E-14
  0.579999983      -6.80915302E-15
  0.580999970      -2.00112275E-15
  0.582000017       2.95076315E-15
  0.583000004       7.90514589E-15
  0.583999991       1.27208814E-14
  0.584999979       1.72616692E-14
  0.586000025       2.14004602E-14
  0.587000012       2.50234861E-14
  0.588000000       2.80337565E-14
  0.588999987       3.03539339E-14
  0.589999974       3.19284563E-14
  0.591000021       3.27248807E-14
  0.592000008       3.27343845E-14
  0.592999995       3.19714619E-14
  0.593999982       3.04727963E-14
  0.595000029       2.82954270E-14
  0.596000016       2.55142553E-14
  0.597000003       2.22190193E-14
  0.597999990       1.85108530E-14
  0.598999977       1.44985918E-14
  0.600000024       1.02949325E-14
  0.601000011       6.01263288E-15
  0.601999998       1.76086196E-15
  0.602999985      -2.35815645E-15
  0.603999972      -6.25209714E-15
  0.605000019      -9.84099056E-15
  0.606000006      -1.30591127E-14
  0.606999993      -1.58562603E-14
  0.607999980      -1.81983911E-14
  0.609000027      -2.00676454E-14
  0.610000014      -2.14617498E-14
  0.611000001      -2.23928965E-14
  0.611999989      -2.28861272E-14
  0.612999976      -2.29773459E-14
  0.614000022      -2.27110319E-14
  0.615000010      -2.21377651E-14
  0.615999997      -2.13116895E-14
  0.616999984      -2.02879925E-14
  0.617999971      -1.91205186E-14
  0.619000018      -1.78595999E-14
  0.620000005      -1.65501920E-14
  0.620999992      -1.52303453E-14
  0.621999979      -1.39301014E-14
  0.623000026      -1.26707980E-14
  0.624000013      -1.14648095E-14
  0.625000000      -1.03157161E-14
  0.625999987      -9.21885757E-15
  0.626999974      -8.16224919E-15
  0.628000021      -7.12778903E-15
  0.629000008      -6.09270757E-15
  0.629999995      -5.03118174E-15
  0.630999982      -3.91604677E-15
  0.632000029      -2.72052753E-15
  0.633000016      -1.41992569E-15
  0.634000003       6.80628693E-18
  0.634999990       1.57565958E-15
  0.635999978       3.29638139E-15
  0.637000024       5.17154272E-15
  0.638000011       7.19588878E-15
  0.638999999       9.35599051E-15
  0.639999986       1.16301960E-14
  0.640999973       1.39888880E-14
  0.642000020       1.63950206E-14
  0.643000007       1.88049209E-14
  0.643999994       2.11693168E-14
  0.644999981       2.34345793E-14
  0.646000028       2.55441013E-14
  0.647000015       2.74398119E-14
  0.648000002       2.90637604E-14
  0.648999989       3.03597310E-14
  0.649999976       3.12748552E-14
  0.651000023       3.17611707E-14
  0.652000010       3.17770983E-14
  0.652999997       3.12888143E-14
  0.653999984       3.02714498E-14
  0.654999971       2.87101343E-14
  0.656000018       2.66008241E-14
  0.657000005       2.39509272E-14
  0.657999992       2.07796816E-14
  0.658999979       1.71182784E-14
  0.660000026       1.30097332E-14
  0.661000013       8.50848661E-15
  0.662000000       3.67973686E-15
  0.662999988      -1.40148949E-15
  0.663999975      -6.65152781E-15
  0.665000021      -1.19795090E-14
  0.666000009      -1.72890182E-14
  0.666999996      -2.24799597E-14
  0.667999983      -2.74505862E-14
  0.669000030      -3.20996722E-14
  0.670000017      -3.63287620E-14
  0.671000004      -4.00444990E-14
  0.671999991      -4.31609094E-14
  0.672999978      -4.56016315E-14
  0.674000025      -4.73020332E-14
  0.675000012      -4.82111469E-14
  0.675999999      -4.82933328E-14
  0.676999986      -4.75296817E-14
  0.677999973      -4.59190249E-14
  0.679000020      -4.34785637E-14
  0.680000007      -4.02440600E-14
  0.680999994      -3.62695544E-14
  0.681999981      -3.16265975E-14
  0.683000028      -2.64029944E-14
  0.684000015      -2.07010888E-14
  0.685000002      -1.46355824E-14
  0.685999990      -8.33095613E-15
  0.686999977      -1.91854064E-15
  0.688000023       4.46669442E-15
  0.689000010       1.06895473E-14
  0.689999998       1.66180969E-14
  0.690999985       2.21272263E-14
  0.691999972       2.71020372E-14
  0.693000019       3.14410736E-14
  0.694000006       3.50592324E-14
  0.694999993       3.78902435E-14
  0.695999980       3.98887127E-14
  0.697000027       4.10315126E-14
  0.698000014       4.13186060E-14
  0.699000001       4.07731439E-14
  0.699999988       3.94408762E-14
  0.700999975       3.73888542E-14
  0.702000022       3.47034413E-14
  0.703000009       3.14876943E-14
  0.703999996       2.78581411E-14
  0.704999983       2.39410932E-14
  0.705999970       1.98685639E-14
  0.707000017       1.57739202E-14
  0.708000004       1.17874130E-14
  0.708999991       8.03172650E-15
  0.709999979       4.61768736E-15
  0.711000025       1.64029285E-15
  0.712000012      -8.24803838E-16
  0.713000000      -2.72421678E-15
  0.713999987      -4.02904054E-15
  0.714999974      -4.73625333E-15
  0.716000021      -4.86923624E-15
  0.717000008      -4.47735644E-15
  0.717999995      -3.63459932E-15
  0.718999982      -2.43725874E-15
  0.720000029      -1.00072888E-15
  0.721000016       5.44520742E-16
  0.722000003       2.05768422E-15
  0.722999990       3.39293277E-15
  0.723999977       4.40514096E-15
  0.725000024       4.95584027E-15
  0.726000011       4.91920652E-15
  0.726999998       4.18786515E-15
  0.727999985       2.67830484E-15
  0.728999972       3.35691518E-16
  0.730000019      -2.86211840E-15
  0.731000006      -6.90154102E-15
  0.731999993      -1.17313640E-14
  0.732999980      -1.72620961E-14
  0.734000027      -2.33666659E-14
  0.735000014      -2.98824991E-14
  0.736000001      -3.66149778E-14
  0.736999989      -4.33422388E-14
  0.737999976      -4.98211939E-14
  0.739000022      -5.57946532E-14
  0.740000010      -6.09993420E-14
  0.740999997      -6.51745910E-14
  0.741999984      -6.80714098E-14
  0.742999971      -6.94617161E-14
  0.744000018      -6.91473449E-14
  0.745000005      -6.69685390E-14
  0.745999992      -6.28116672E-14
  0.746999979      -5.66157533E-14
  0.748000026      -4.83776871E-14
  0.749000013      -3.81557409E-14
  0.750000000      -2.60713031E-14
  0.750999987      -1.23086195E-14
  0.751999974       2.88749275E-15
  0.753000021       1.92159860E-14
  0.754000008       3.63259160E-14
  0.754999995       5.38246646E-14
  0.755999982       7.12877836E-14
  0.757000029       8.82702860E-14
  0.758000016       1.04318992E-13
  0.759000003       1.18985618E-13
  0.759999990       1.31840136E-13
  0.760999978       1.42484020E-13
  0.762000024       1.50562952E-13
  0.763000011       1.55778453E-13
  0.763999999       1.57898149E-13
  0.764999986       1.56764209E-13
  0.765999973       1.52299573E-13
  0.767000020       1.44511898E-13
  0.768000007       1.33494764E-13
  0.768999994       1.19426265E-13
  0.769999981       1.02564767E-13
  0.771000028       8.32420748E-14
  0.772000015       6.18540728E-14
  0.773000002       3.88491424E-14
  0.773999989       1.47146394E-14
  0.774999976      -1.00380773E-14
  0.776000023      -3.48896496E-14
  0.777000010      -5.93292166E-14
  0.777999997      -8.28708575E-14
  0.778999984      -1.05069443E-13
  0.779999971      -1.25535338E-13
  0.781000018      -1.43947435E-13
  0.782000005      -1.60064101E-13
  0.782999992      -1.73731567E-13
  0.783999979      -1.84889471E-13
  0.785000026      -1.93573456E-13
  0.786000013      -1.99914480E-13
  0.787000000      -2.04134981E-13
  0.787999988      -2.06542018E-13
  0.788999975      -2.07517475E-13
  0.790000021      -2.07505766E-13
  0.791000009      -2.06999335E-13
  0.791999996      -2.06522557E-13
  0.792999983      -2.06614456E-13
  0.794000030      -2.07810860E-13
  0.795000017      -2.10626723E-13
  0.796000004      -2.15539012E-13
  0.796999991      -2.22970907E-13
  0.797999978      -2.33277753E-13
  0.799000025      -2.46735412E-13
  0.800000012      -2.63531140E-13
  0.800999999      -2.83757582E-13
  0.801999986      -3.07409886E-13
  0.802999973      -3.34386219E-13
  0.804000020      -3.64491396E-13
  0.805000007      -3.97443688E-13
  0.805999994      -4.32884604E-13
  0.806999981      -4.70391141E-13
  0.808000028      -5.09490020E-13
  0.809000015      -5.49673751E-13
  0.810000002      -5.90417689E-13
  0.810999990      -6.31197297E-13
  0.811999977      -6.71505711E-13
  0.813000023      -7.10870165E-13
  0.814000010      -7.48867277E-13
  0.814999998      -7.85136604E-13
  0.815999985      -8.19392080E-13
  0.816999972      -8.51430471E-13
  0.818000019      -8.81137394E-13
  0.819000006      -9.08490080E-13
  0.819999993      -9.33557268E-13
  0.820999980      -9.56495625E-13
  0.822000027      -9.77544434E-13
  0.823000014      -9.97016272E-13
  0.824000001      -1.01528616E-12
  0.824999988      -1.03277922E-12
  0.825999975      -1.04995613E-12
  0.827000022      -1.06729794E-12
  0.828000009      -1.08529093E-12
  0.828999996      -1.10441116E-12
  0.829999983      -1.12510977E-12
  0.830999970      -1.14779974E-12
  0.832000017      -1.17284329E-12
  0.833000004      -1.20054238E-12
  0.833999991      -1.23113000E-12
  0.834999979      -1.26476531E-12
  0.836000025      -1.30152985E-12
  0.837000012      -1.34142729E-12
  0.838000000      -1.38438512E-12
  0.838999987      -1.43025858E-12
  0.839999974      -1.47883734E-12
  0.841000021      -1.52985296E-12
  0.842000008      -1.58298906E-12
  0.842999995      -1.63789154E-12
  0.843999982      -1.69418028E-12
  0.845000029      -1.75146128E-12
  0.846000016      -1.80933805E-12
  0.847000003      -1.86742375E-12
  0.847999990      -1.92535137E-12
  0.848999977      -1.98278416E-12
  0.850000024      -2.03942397E-12
  0.851000011      -2.09501817E-12
  0.851999998      -2.14936510E-12
  0.852999985      -2.20231862E-12
  0.853999972      -2.25378939E-12
  0.855000019      -2.30374574E-12
  0.856000006      -2.35221218E-12