   0.00000000       0.00000000    
   1.00000005E-03   0.00000000    
   2.00000009E-03   0.00000000    
   3.00000003E-03   0.00000000    
   4.00000019E-03   0.00000000    
   4.99999989E-03   0.00000000    
   6.00000005E-03   0.00000000    
   7.00000022E-03   0.00000000    
   8.00000038E-03   0.00000000    
   8.99999961E-03   0.00000000    
   9.99999978E-03   0.00000000    
   1.09999999E-02   0.00000000    
   1.20000001E-02   0.00000000    
   1.30000003E-02   0.00000000    
   1.40000004E-02   0.00000000    
   1.49999997E-02   0.00000000    
   1.60000008E-02   0.00000000    
   1.70000009E-02   1.66284118E-37
   1.79999992E-02   9.55190412E-37
   1.89999994E-02   2.77241534E-36
   1.99999996E-02   7.75105650E-36
   2.09999997E-02   1.62601662E-35
   2.19999999E-02   2.82037743E-35
   2.30000000E-02   4.35898273E-35
   2.40000002E-02   6.33856056E-35
   2.50000004E-02   8.11748702E-35
   2.60000005E-02   6.83331167E-35
   2.70000007E-02  -3.63557042E-35
   2.80000009E-02  -3.53485822E-34
   2.89999992E-02  -1.10117234E-33
   2.99999993E-02  -2.64586972E-33
   3.09999995E-02  -5.55330347E-33
   3.20000015E-02  -1.06352322E-32
   3.29999998E-02  -1.89567948E-32
   3.40000018E-02  -3.17492708E-32
   3.50000001E-02  -5.02342633E-32
   3.59999985E-02  -7.51470558E-32
   3.70000005E-02  -1.05723198E-31
   3.79999988E-02  -1.38160729E-31
   3.90000008E-02  -1.63402272E-31
   3.99999991E-02  -1.63961984E-31
   4.10000011E-02  -1.09720866E-31
   4.19999994E-02   4.72113326E-32
   4.30000015E-02   3.78133117E-31
   4.39999998E-02   9.83157896E-31
   4.50000018E-02   1.99519966E-30
   4.60000001E-02   3.58052495E-30
   4.69999984E-02   5.93320335E-30
   4.80000004E-02   9.26015705E-30
   4.89999987E-02   1.37528897E-29
   5.00000007E-02   1.95417431E-29
   5.09999990E-02   2.66289366E-29
   5.20000011E-02   3.47979279E-29
   5.29999994E-02   4.34990597E-29
   5.40000014E-02   5.17154500E-29
   5.49999997E-02   5.78187220E-29
   5.60000017E-02   5.94315921E-29
   5.70000000E-02   5.33231863E-29
   5.79999983E-02   3.53730949E-29
   5.90000004E-02   6.50031449E-31
   5.99999987E-02  -5.63403842E-29
   6.10000007E-02  -1.41178934E-28
   6.19999990E-02  -2.58768092E-28
   6.30000010E-02  -4.12229608E-28
   6.40000030E-02  -6.01435759E-28
   6.49999976E-02  -8.21181476E-28
   6.59999996E-02  -1.05905665E-27
   6.70000017E-02  -1.29314862E-27
   6.80000037E-02  -1.48979146E-27
   6.89999983E-02  -1.60167942E-27
   7.00000003E-02  -1.56676895E-27
   7.10000023E-02  -1.30849626E-27
   7.19999969E-02  -7.37924777E-28
   7.29999989E-02   2.41517898E-28
   7.40000010E-02   1.72605982E-27
   7.50000030E-02   3.79980162E-27
   7.59999976E-02   6.51876596E-27
   7.69999996E-02   9.89074034E-27
   7.80000016E-02   1.38513344E-26
   7.90000036E-02   1.82372916E-26
   7.99999982E-02   2.27588312E-26
   8.10000002E-02   2.69736627E-26
   8.20000023E-02   3.02662171E-26
   8.29999968E-02   3.18365557E-26
   8.39999989E-02   3.07041428E-26
   8.50000009E-02   2.57322329E-26
   8.60000029E-02   1.56787399E-26
   8.69999975E-02  -7.20975727E-28
   8.79999995E-02  -2.46351292E-26
   8.90000015E-02  -5.69780304E-26
   9.00000036E-02  -9.82147604E-26
   9.09999982E-02  -1.48132621E-25
   9.20000002E-02  -2.05588911E-25
   9.30000022E-02  -2.68250327E-25
   9.39999968E-02  -3.32345620E-25
   9.49999988E-02  -3.92459508E-25
   9.60000008E-02  -4.41401844E-25
   9.70000029E-02  -4.70191372E-25
   9.79999974E-02  -4.68195406E-25
   9.89999995E-02  -4.23468275E-25
  0.100000001      -3.23326771E-25
  0.101000004      -1.55192951E-25
  0.101999998       9.22785759E-26
  0.103000000       4.27791084E-25
  0.104000002       8.55740631E-25
  0.104999997       1.37435347E-24
  0.105999999       1.97371736E-24
  0.107000001       2.63383676E-24
  0.108000003       3.32287974E-24
  0.108999997       3.99581754E-24
  0.109999999       4.59368930E-24
  0.111000001       5.04374155E-24
  0.112000003       5.26069526E-24
  0.112999998       5.14937594E-24
  0.114000000       4.60890801E-24
  0.115000002       3.53860638E-24
  0.115999997       1.84560201E-24
  0.116999999      -5.45876561E-25
  0.118000001      -3.68379583E-24
  0.119000003      -7.57658064E-24
  0.119999997      -1.21809306E-23
  0.120999999      -1.73899496E-23
  0.122000001      -2.30225332E-23
  0.123000003      -2.88151104E-23
  0.123999998      -3.44169221E-23
  0.125000000      -3.93901222E-23
  0.126000002      -4.32158735E-23
  0.127000004      -4.53075634E-23
  0.128000006      -4.50320017E-23
  0.128999993      -4.17391164E-23
  0.129999995      -3.48002265E-23
  0.130999997      -2.36543603E-23
  0.131999999      -7.86153850E-24
  0.133000001       1.28389171E-23
  0.134000003       3.84676219E-23
  0.135000005       6.87452331E-23
  0.136000007       1.03037452E-22
  0.136999995       1.40309388E-22
  0.137999997       1.79094157E-22
  0.138999999       2.17480646E-22
  0.140000001       2.53125244E-22
  0.141000003       2.83291487E-22
  0.142000005       3.04921220E-22
  0.143000007       3.14738941E-22
  0.143999994       3.09389884E-22
  0.144999996       2.85610234E-22
  0.145999998       2.40425695E-22
  0.147000000       1.71372547E-22
  0.148000002       7.67328726E-23
  0.149000004      -4.42264580E-23
  0.150000006      -1.91023072E-22
  0.150999993      -3.61750255E-22
  0.151999995      -5.52904202E-22
  0.152999997      -7.59261935E-22
  0.153999999      -9.73823014E-22
  0.155000001      -1.18782712E-21
  0.156000003      -1.39085755E-21
  0.157000005      -1.57103621E-21
  0.158000007      -1.71531248E-21
  0.158999994      -1.80984493E-21
  0.159999996      -1.84046959E-21
  0.160999998      -1.79324356E-21
  0.162000000      -1.65505068E-21
  0.163000003      -1.41425155E-21
  0.164000005      -1.06135785E-21
  0.165000007      -5.89711367E-22
  0.165999994       3.85370543E-24
  0.166999996       7.18383037E-22
  0.167999998       1.54822604E-21
  0.169000000       2.48252512E-21
  0.170000002       3.50477839E-21
  0.171000004       4.59248455E-21
  0.172000006       5.71687382E-21
  0.172999993       6.84272722E-21
  0.173999995       7.92829757E-21
  0.174999997       8.92533212E-21
  0.175999999       9.77922647E-21
  0.177000001       1.04293403E-20
  0.178000003       1.08095155E-20
  0.179000005       1.08488631E-20
  0.180000007       1.04729006E-20
  0.180999994       9.60513484E-21
  0.181999996       8.16920180E-21
  0.182999998       6.09167953E-21
  0.184000000       3.30568575E-21
  0.185000002      -2.44632002E-22
  0.186000004      -4.59865892E-21
  0.187000006      -9.77289660E-21
  0.187999994      -1.57536289E-20
  0.188999996      -2.24887984E-20
  0.189999998      -2.98793632E-20
  0.191000000      -3.77704788E-20
  0.192000002      -4.59430620E-20
  0.193000004      -5.41063588E-20
  0.194000006      -6.18923224E-20
  0.194999993      -6.88527435E-20
  0.195999995      -7.44601104E-20
  0.196999997      -7.81132825E-20
  0.197999999      -7.91490354E-20
  0.199000001      -7.68603882E-20
  0.200000003      -7.05225497E-20
  0.201000005      -5.94269752E-20
  0.202000007      -4.29236621E-20
  0.202999994      -2.04713146E-20
  0.203999996       8.30553716E-21
  0.204999998       4.35540966E-20
  0.206000000       8.51278839E-20
  0.207000002       1.32521378E-19
  0.208000004       1.84808744E-19
  0.209000006       2.40590935E-19
  0.209999993       2.97956454E-19
  0.210999995       3.54461161E-19
  0.211999997       4.07132792E-19
  0.213000000       4.52505483E-19
  0.214000002       4.86689394E-19
  0.215000004       5.05479371E-19
  0.216000006       5.04504849E-19
  0.216999993       4.79422199E-19
  0.217999995       4.26147683E-19
  0.218999997       3.41127113E-19
  0.219999999       2.21635032E-19
  0.221000001       6.60930493E-20
  0.222000003      -1.25605799E-19
  0.223000005      -3.51783112E-19
  0.224000007      -6.08690883E-19
  0.224999994      -8.90278156E-19
  0.225999996      -1.18803081E-18
  0.226999998      -1.49090847E-18
  0.228000000      -1.78539966E-18
  0.229000002      -2.05571629E-18
  0.230000004      -2.28414263E-18
  0.231000006      -2.45155096E-18
  0.231999993      -2.53808666E-18
  0.232999995      -2.52402066E-18
  0.233999997      -2.39075380E-18
  0.234999999      -2.12194885E-18
  0.236000001      -1.70475627E-18
  0.237000003      -1.13108636E-18
  0.238000005      -3.98870860E-19
  0.238999993       4.86751950E-19
  0.239999995       1.51240256E-18
  0.240999997       2.65565384E-18
  0.241999999       3.88453363E-18
  0.243000001       5.15741280E-18
  0.244000003       6.42334904E-18
  0.245000005       7.62294580E-18
  0.246000007       8.68976891E-18
  0.246999994       9.55233879E-18
  0.247999996       1.01366964E-17
  0.248999998       1.03695056E-17
  0.250000000       1.01816231E-17
  0.250999987       9.51203938E-18
  0.252000004       8.31205094E-18
  0.252999991       6.54949946E-18
  0.254000008       4.21287925E-18
  0.254999995       1.31509175E-18
  0.256000012      -2.10338174E-18
  0.256999999      -5.97213318E-18
  0.257999986      -1.01895400E-17
  0.259000003      -1.46227566E-17
  0.259999990      -1.91091692E-17
  0.261000007      -2.34594526E-17
  0.261999995      -2.74623235E-17
  0.263000011      -3.08909839E-17
  0.263999999      -3.35112108E-17
  0.264999986      -3.50909240E-17
  0.266000003      -3.54109899E-17
  0.266999990      -3.42769187E-17
  0.268000007      -3.15310331E-17
  0.268999994      -2.70646085E-17
  0.270000011      -2.08293938E-17
  0.270999998      -1.28479223E-17
  0.272000015      -3.22196030E-18
  0.273000002       7.86153281E-18
  0.273999989       2.01275245E-17
  0.275000006       3.32136409E-17
  0.275999993       4.66749101E-17
  0.277000010       5.99928158E-17
  0.277999997       7.25887979E-17
  0.279000014       8.38420475E-17
  0.280000001       9.31114202E-17
  0.280999988       9.97608605E-17
  0.282000005       1.03187658E-16
  0.282999992       1.02852590E-16
  0.284000009       9.83107731E-17
  0.284999996       8.92419553E-17
  0.286000013       7.54788015E-17
  0.287000000       5.70316879E-17
  0.287999988       3.41084948E-17
  0.289000005       7.12800559E-18
  0.289999992      -2.32744570E-17
  0.291000009      -5.62501809E-17
  0.291999996      -9.07498129E-17
  0.293000013      -1.25546191E-16
  0.294000000      -1.59267234E-16
  0.294999987      -1.90438550E-16
  0.296000004      -2.17534856E-16
  0.296999991      -2.39038759E-16
  0.298000008      -2.53505182E-16
  0.298999995      -2.59629071E-16
  0.300000012      -2.56313811E-16
  0.300999999      -2.42737355E-16
  0.301999986      -2.18413017E-16
  0.303000003      -1.83241761E-16
  0.303999990      -1.37552976E-16
  0.305000007      -8.21308027E-17
  0.305999994      -1.82236359E-17
  0.307000011       5.24650421E-17
  0.307999998       1.27805863E-16
  0.308999985       2.05293231E-16
  0.310000002       2.82115149E-16
  0.310999990       3.55241621E-16
  0.312000006       4.21529731E-16
  0.312999994       4.77842096E-16
  0.314000010       5.21174608E-16
  0.314999998       5.48788888E-16
  0.316000015       5.58344161E-16
  0.317000002       5.48022694E-16
  0.317999989       5.16642982E-16
  0.319000006       4.63755144E-16
  0.319999993       3.89713189E-16
  0.321000010       2.95719028E-16
  0.321999997       1.83834631E-16
  0.323000014       5.69596702E-17
  0.324000001      -8.12269127E-17
  0.324999988      -2.26361191E-16
  0.326000005      -3.73522869E-16
  0.326999992      -5.17394935E-16
  0.328000009      -6.52449256E-16
  0.328999996      -7.73152510E-16
  0.330000013      -8.74184112E-16
  0.331000000      -9.50658005E-16
  0.331999987      -9.98339501E-16
  0.333000004      -1.01384677E-15
  0.333999991      -9.94828550E-16
  0.335000008      -9.40109057E-16
  0.335999995      -8.49791575E-16
  0.337000012      -7.25315319E-16
  0.338000000      -5.69460409E-16
  0.338999987      -3.86298375E-16
  0.340000004      -1.81087981E-16
  0.340999991       3.98815008E-17
  0.342000008       2.69495020E-16
  0.342999995       5.00057706E-16
  0.344000012       7.23572972E-16
  0.344999999       9.32041809E-16
  0.345999986       1.11777125E-15
  0.347000003       1.27367889E-15
  0.347999990       1.39358022E-15
  0.349000007       1.47244565E-15
  0.349999994       1.50661570E-15
  0.351000011       1.49396283E-15
  0.351999998       1.43399300E-15
  0.352999985       1.32788042E-15
  0.354000002       1.17843321E-15
  0.354999989       9.89990615E-16
  0.356000006       7.68255124E-16
  0.356999993       5.20067642E-16
  0.358000010       2.53134420E-16
  0.358999997      -2.42805965E-17
  0.360000014      -3.03683864E-16
  0.361000001      -5.76684965E-16
  0.361999989      -8.35317793E-16
  0.363000005      -1.07233408E-15
  0.363999993      -1.28145486E-15
  0.365000010      -1.45756720E-15
  0.365999997      -1.59685658E-15
  0.367000014      -1.69686904E-15
  0.368000001      -1.75650016E-15
  0.368999988      -1.77591352E-15
  0.370000005      -1.75639481E-15
  0.370999992      -1.70015161E-15
  0.372000009      -1.61007273E-15
  0.372999996      -1.48946445E-15
  0.374000013      -1.34178214E-15
  0.375000000      -1.17037666E-15
  0.375999987      -9.78275620E-16
  0.377000004      -7.68017638E-16
  0.377999991      -5.41554115E-16
  0.379000008      -3.00230616E-16
  0.379999995      -4.48540209E-17
  0.381000012       2.24153770E-16
  0.381999999       5.06521256E-16
  0.382999986       8.01823411E-16
  0.384000003       1.10912654E-15
  0.384999990       1.42660550E-15
  0.386000007       1.75116216E-15
  0.386999995       2.07807463E-15
  0.388000011       2.40071245E-15
  0.388999999       2.71034831E-15
  0.389999986       2.99609784E-15
  0.391000003       3.24501244E-15
  0.391999990       3.44234338E-15
  0.393000007       3.57198834E-15
  0.393999994       3.61712122E-15
  0.395000011       3.56099173E-15
  0.395999998       3.38787599E-15
  0.397000015       3.08413844E-15
  0.398000002       2.63936292E-15
  0.398999989       2.04749611E-15
  0.400000006       1.30793873E-15
  0.400999993       4.26516929E-16
  0.402000010      -5.83737044E-16
  0.402999997      -1.70206400E-15
  0.404000014      -2.89978003E-15
  0.405000001      -4.14045459E-15
  0.405999988      -5.38050490E-15
  0.407000005      -6.57022790E-15
  0.407999992      -7.65527456E-15
  0.409000009      -8.57854640E-15
  0.409999996      -9.28246297E-15
  0.411000013      -9.71154360E-15
  0.412000000      -9.81520603E-15
  0.412999988      -9.55066833E-15
  0.414000005      -8.88583047E-15
  0.414999992      -7.80198914E-15
  0.416000009      -6.29623857E-15
  0.416999996      -4.38341160E-15
  0.418000013      -2.09741515E-15
  0.419000000       5.08161958E-16
  0.419999987       3.36027626E-15
  0.421000004       6.36756552E-15
  0.421999991       9.42243093E-15
  0.423000008       1.24040648E-14
  0.423999995       1.51823778E-14
  0.425000012       1.76227322E-14
  0.425999999       1.95913351E-14
  0.426999986       2.09611262E-14
  0.428000003       2.16179207E-14
  0.428999990       2.14665610E-14
  0.430000007       2.04368010E-14
  0.430999994       1.84886388E-14
  0.432000011       1.56168074E-14
  0.432999998       1.18541448E-14
  0.433999985       7.27360406E-15
  0.435000002       1.98870292E-15
  0.435999990      -3.84775219E-15
  0.437000006      -1.00467425E-14
  0.437999994      -1.63879327E-14
  0.439000010      -2.26263168E-14
  0.439999998      -2.85004632E-14
  0.441000015      -3.37421300E-14
  0.442000002      -3.80869347E-14
  0.442999989      -4.12857038E-14
  0.444000006      -4.31160607E-14
  0.444999993      -4.33937656E-14
  0.446000010      -4.19833032E-14
  0.446999997      -3.88072177E-14
  0.448000014      -3.38536877E-14
  0.449000001      -2.71819005E-14
  0.449999988      -1.89248455E-14
  0.451000005      -9.28921467E-15
  0.451999992       1.44777921E-15
  0.453000009       1.29447404E-14
  0.453999996       2.48055310E-14
  0.455000013       3.65916268E-14
  0.456000000       4.78370463E-14
  0.456999987       5.80654096E-14
  0.458000004       6.68085175E-14
  0.458999991       7.36258182E-14
  0.460000008       7.81239358E-14
  0.460999995       7.99755092E-14
  0.462000012       7.89364640E-14
  0.463000000       7.48609481E-14
  0.463999987       6.77131284E-14
  0.465000004       5.75752079E-14
  0.465999991       4.46511080E-14
  0.467000008       2.92653949E-14
  0.467999995       1.18572542E-14
  0.469000012      -7.03051915E-15
  0.469999999      -2.67673355E-14
  0.470999986      -4.66550084E-14
  0.472000003      -6.59517810E-14
  0.472999990      -8.38993588E-14
  0.474000007      -9.97519802E-14
  0.474999994      -1.12806452E-13
  0.476000011      -1.22431999E-13
  0.476999998      -1.28098582E-13
  0.477999985      -1.29402619E-13
  0.479000002      -1.26088796E-13
  0.479999989      -1.18066906E-13
  0.481000006      -1.05422859E-13
  0.481999993      -8.84231788E-14
  0.483000010      -6.75123816E-14
  0.483999997      -4.33031601E-14
  0.485000014      -1.65594026E-14
  0.486000001       1.18275293E-14
  0.486999989       4.08685943E-14
  0.488000005       6.95119621E-14
  0.488999993       9.66817568E-14
  0.490000010       1.21319296E-13
  0.490999997       1.42425121E-13
  0.492000014       1.59100286E-13
  0.493000001       1.70585063E-13
  0.493999988       1.76293428E-13
  0.495000005       1.75841844E-13
  0.495999992       1.69070880E-13
  0.497000009       1.56058543E-13
  0.497999996       1.37124592E-13
  0.499000013       1.12825222E-13
  0.500000000       8.39381597E-14
  0.500999987       5.14383797E-14
  0.501999974       1.64651567E-14
  0.503000021      -1.97184239E-14
  0.504000008      -5.57721051E-14
  0.504999995      -9.03295044E-14
  0.505999982      -1.22051607E-13
  0.507000029      -1.49680588E-13
  0.508000016      -1.72091765E-13
  0.509000003      -1.88341489E-13
  0.509999990      -1.97708928E-13
  0.510999978      -1.99729840E-13
  0.512000024      -1.94220738E-13
  0.513000011      -1.81292264E-13
  0.513999999      -1.61350886E-13
  0.514999986      -1.35088609E-13
  0.515999973      -1.03460833E-13
  0.517000020      -6.76529755E-14
  0.518000007      -2.90370416E-14
  0.518999994       1.08803822E-14
  0.519999981       5.05166553E-14
  0.521000028       8.82759171E-14
  0.522000015       1.22613684E-13
  0.523000002       1.52100595E-13
  0.523999989       1.75482608E-13
  0.524999976       1.91735150E-13
  0.526000023       2.00108796E-13
  0.527000010       2.00164429E-13
  0.527999997       1.91796272E-13
  0.528999984       1.75241589E-13
  0.529999971       1.51076417E-13
  0.531000018       1.20197296E-13
  0.532000005       8.37894614E-14
  0.532999992       4.32827128E-14
  0.533999979       2.96463226E-16
  0.535000026      -4.34237539E-14
  0.536000013      -8.60759489E-14
  0.537000000      -1.25874585E-13
  0.537999988      -1.61123800E-13
  0.538999975      -1.90287876E-13
  0.540000021      -2.12055999E-13
  0.541000009      -2.25398503E-13
  0.541999996      -2.29612173E-13
  0.542999983      -2.24352655E-13
  0.544000030      -2.09652391E-13
  0.545000017      -1.85923258E-13
  0.546000004      -1.53943617E-13
  0.546999991      -1.14830251E-13
  0.547999978      -6.99962075E-14
  0.549000025      -2.10961264E-14
  0.550000012       3.00385327E-14
  0.550999999       8.14718844E-14
  0.551999986       1.31240586E-13
  0.552999973       1.77432098E-13
  0.554000020       2.18261051E-13
  0.555000007       2.52140458E-13
  0.555999994       2.77744651E-13
  0.556999981       2.94061596E-13
  0.558000028       3.00432015E-13
  0.559000015       2.96573828E-13
  0.560000002       2.82591008E-13
  0.560999990       2.58966405E-13
  0.561999977       2.26538880E-13
  0.563000023       1.86465996E-13
  0.564000010       1.40173815E-13
  0.564999998       8.92960632E-14
  0.565999985       3.56054907E-14
  0.566999972      -1.90594966E-14
  0.568000019      -7.28697566E-14
  0.569000006      -1.24078482E-13
  0.569999993      -1.71089163E-13
  0.570999980      -2.12515552E-13
  0.572000027      -2.47230947E-13
  0.573000014      -2.74404685E-13
  0.574000001      -2.93524536E-13
  0.574999988      -3.04403990E-13
  0.575999975      -3.07174452E-13
  0.577000022      -3.02262908E-13
  0.578000009      -2.90356525E-13
  0.578999996      -2.72355950E-13
  0.579999983      -2.49319933E-13
  0.580999970      -2.22404208E-13
  0.582000017      -1.92797655E-13
  0.583000004      -1.61659220E-13
  0.583999991      -1.30058819E-13
  0.584999979      -9.89252557E-14
  0.586000025      -6.90039117E-14
  0.587000012      -4.08264189E-14
  0.588000000      -1.46939345E-14
  0.588999987       9.32512802E-15
  0.589999974       3.13827096E-14
  0.591000021       5.18247148E-14
  0.592000008       7.11520280E-14
  0.592999995       8.99709655E-14
  0.593999982       1.08935857E-13
  0.595000029       1.28687032E-13
  0.596000016       1.49787599E-13
  0.597000003       1.72662706E-13
  0.597999990       1.97544943E-13
  0.598999977       2.24429335E-13
  0.600000024       2.53040888E-13
  0.601000011       2.82817091E-13
  0.601999998       3.12907415E-13
  0.602999985       3.42190387E-13
  0.603999972       3.69308561E-13
  0.605000019       3.92720307E-13
  0.606000006       4.10766825E-13
  0.606999993       4.21751501E-13
  0.607999980       4.24028353E-13
  0.609000027       4.16095408E-13
  0.610000014       3.96688433E-13
  0.611000001       3.64870433E-13
  0.611999989       3.20112155E-13
  0.612999976       2.62358820E-13
  0.614000022       1.92079086E-13
  0.615000010       1.10292797E-13
  0.615999997       1.85748193E-14
  0.616999984      -8.09666055E-14
  0.617999971      -1.85737507E-13
  0.619000018      -2.92731090E-13
  0.620000005      -3.98623951E-13
  0.620999992      -4.99892445E-13
  0.621999979      -5.92945235E-13
  0.623000026      -6.74266361E-13
  0.624000013      -7.40563589E-13
  0.625000000      -7.88915103E-13
  0.625999987      -8.16908173E-13
  0.626999974      -8.22763407E-13
  0.628000021      -8.05438073E-13
  0.629000008      -7.64703025E-13
  0.629999995      -7.01188998E-13
  0.630999982      -6.16398371E-13
  0.632000029      -5.12680610E-13
  0.633000016      -3.93171010E-13
  0.634000003      -2.61693553E-13
  0.634999990      -1.22630747E-13
  0.635999978       1.92351560E-14
  0.637000024       1.58904153E-13
  0.638000011       2.91356403E-13
  0.638999999       4.11758464E-13
  0.639999986       5.15668942E-13
  0.640999973       5.99234909E-13
  0.642000020       6.59370236E-13
  0.643000007       6.93907388E-13
  0.643999994       7.01715107E-13
  0.644999981       6.82775884E-13
  0.646000028       6.38218211E-13
  0.647000015       5.70300697E-13
  0.648000002       4.82346910E-13
  0.648999989       3.78631805E-13
  0.649999976       2.64223214E-13
  0.651000023       1.44783409E-13
  0.652000010       2.63378390E-14
  0.652999997      -8.49802406E-14
  0.653999984      -1.83199078E-13
  0.654999971      -2.62780683E-13
  0.656000018      -3.18884350E-13
  0.657000005      -3.47610124E-13
  0.657999992      -3.46210745E-13
  0.658999979      -3.13261976E-13
  0.660000026      -2.48782548E-13
  0.661000013      -1.54296809E-13
  0.662000000      -3.28351373E-14
  0.662999988       1.11130106E-13
  0.663999975       2.71812791E-13
  0.665000021       4.42302472E-13
  0.666000009       6.14809310E-13
  0.666999996       7.80956354E-13
  0.667999983       9.32108774E-13
  0.669000030       1.05972772E-12
  0.670000017       1.15573480E-12
  0.671000004       1.21287323E-12
  0.671999991       1.22504979E-12
  0.672999978       1.18764373E-12
  0.674000025       1.09776825E-12
  0.675000012       9.54472612E-13
  0.675999999       7.58874517E-13
  0.676999986       5.14215190E-13
  0.677999973       2.25831859E-13
  0.679000020      -9.89531943E-14
  0.680000007      -4.51026044E-13
  0.680999994      -8.19751493E-13
  0.681999981      -1.19331238E-12
  0.683000028      -1.55910636E-12
  0.684000015      -1.90418623E-12
  0.685000002      -2.21572804E-12
  0.685999990      -2.48150957E-12
  0.686999977      -2.69037982E-12
  0.688000023      -2.83270304E-12
  0.689000010      -2.90075754E-12
  0.689999998      -2.88907310E-12
  0.690999985      -2.79469395E-12
  0.691999972      -2.61735425E-12
  0.693000019      -2.35955699E-12
  0.694000006      -2.02655232E-12
  0.694999993      -1.62621446E-12
  0.695999980      -1.16881895E-12
  0.697000027      -6.66726873E-13
  0.698000014      -1.33987764E-13
  0.699000001       4.14125792E-13
  0.699999988       9.61634960E-13
  0.700999975       1.49240407E-12
  0.702000022       1.99070101E-12
  0.703000009       2.44174971E-12
  0.703999996       2.83225006E-12
  0.704999983       3.15084872E-12
  0.705999970       3.38853923E-12
  0.707000017       3.53897836E-12
  0.708000004       3.59870358E-12
  0.708999991       3.56724372E-12
  0.709999979       3.44711824E-12
  0.711000025       3.24372473E-12
  0.712000012       2.96511817E-12
  0.713000000       2.62168954E-12
  0.713999987       2.22575864E-12
  0.714999974       1.79109418E-12
  0.716000021       1.33238169E-12
  0.717000008       8.64660231E-13
  0.717999995       4.02749503E-13
  0.718999982      -3.93089966E-14
  0.720000029      -4.48775294E-13
  0.721000016      -8.14676560E-13
  0.722000003      -1.12819693E-12
  0.722999990      -1.38297642E-12
  0.723999977      -1.57530510E-12
  0.725000024      -1.70420741E-12
  0.726000011      -1.77141136E-12
  0.726999998      -1.78120496E-12
  0.727999985      -1.74018579E-12
  0.728999972      -1.65691473E-12
  0.730000019      -1.54148851E-12
  0.731000006      -1.40504882E-12
  0.731999993      -1.25924954E-12
  0.732999980      -1.11570388E-12
  0.734000027      -9.85435691E-13
  0.735000014      -8.78358259E-13
  0.736000001      -8.02802757E-13
  0.736999989      -7.65117407E-13
  0.737999976      -7.69353873E-13
  0.739000022      -8.17055408E-13
  0.740000010      -9.07156566E-13
  0.740999997      -1.03599876E-12
  0.741999984      -1.19746227E-12
  0.742999971      -1.38320930E-12
  0.744000018      -1.58302852E-12
  0.745000005      -1.78526768E-12
  0.745999992      -1.97733561E-12
  0.746999979      -2.14625279E-12
  0.748000026      -2.27922824E-12
  0.749000013      -2.36423684E-12
  0.750000000      -2.39057450E-12
  0.750999987      -2.34936549E-12
  0.751999974      -2.23400161E-12
  0.753000021      -2.04049321E-12
  0.754000008      -1.76771694E-12
  0.754999995      -1.41754935E-12
  0.755999982      -9.94879092E-13
  0.757000029      -5.07496822E-13
  0.758000016       3.41325275E-14
  0.759000003       6.17208433E-13
  0.759999990       1.22702857E-12
  0.760999978       1.84750219E-12
  0.762000024       2.46172136E-12
  0.763000011       3.05256688E-12
  0.763999999       3.60332337E-12
  0.764999986       4.09828031E-12
  0.765999973       4.52329276E-12
  0.767000020       4.86627882E-12
  0.768000007       5.11763461E-12
  0.768999994       5.27055092E-12
  0.769999981       5.32121699E-12
  0.771000028       5.26890640E-12
  0.772000015       5.11594022E-12
  0.773000002       4.86753216E-12
  0.773999989       4.53152359E-12
  0.774999976       4.11801886E-12
  0.776000023       3.63894071E-12
  0.777000010       3.10752509E-12
  0.777999997       2.53777706E-12
  0.778999984       1.94391291E-12
  0.779999971       1.33981324E-12
  0.781000018       7.38510707E-13
  0.782000005       1.51734880E-13
  0.782999992      -4.10466095E-13
  0.783999979      -9.40011307E-13
  0.785000026      -1.43096862E-12
  0.786000013      -1.87962666E-12
  0.787000000      -2.28445344E-12
  0.787999988      -2.64594726E-12
  0.788999975      -2.96638929E-12
  0.790000021      -3.24950895E-12
  0.791000009      -3.50008239E-12
  0.791999996      -3.72348419E-12
  0.792999983      -3.92521475E-12
  0.794000030      -4.11042858E-12
  0.795000017      -4.28348936E-12
  0.796000004      -4.44757382E-12
  0.796999991      -4.60434512E-12
  0.797999978      -4.75371695E-12
  0.799000025      -4.89371781E-12
  0.800000012      -5.02046972E-12
  0.800999999      -5.12828321E-12
  0.801999986      -5.20986336E-12
  0.802999973      -5.25662543E-12
  0.804000020      -5.25910435E-12
  0.805000007      -5.20744038E-12
  0.805999994      -5.09191907E-12
  0.806999981      -4.90354068E-12
  0.808000028      -4.63459392E-12
  0.809000015      -4.27920329E-12
  0.810000002      -3.83382345E-12
  0.810999990      -3.29765425E-12
  0.811999977      -2.67295366E-12
  0.813000023      -1.96522963E-12
  0.814000010      -1.18329619E-12
  0.814999998      -3.39184871E-13
  0.815999985       5.52089245E-13
  0.816999972       1.47290383E-12
  0.818000019       2.40353744E-12
  0.819000006       3.32279061E-12
  0.819999993       4.20869979E-12
  0.820999980       5.03931575E-12
  0.822000027       5.79351454E-12
  0.823000014       6.45180914E-12
  0.824000001       6.99712900E-12
  0.824999988       7.41553000E-12
  0.825999975       7.69680587E-12
  0.827000022       7.83497139E-12
  0.828000009       7.82859628E-12
  0.828999996       7.68096784E-12
  0.829999983       7.40007534E-12
  0.830999970       6.99841010E-12
  0.832000017       6.49258251E-12
  0.833000004       5.90277566E-12
  0.833999991       5.25204576E-12
  0.834999979       4.56550032E-12
  0.836000025       3.86938355E-12
  0.837000012       3.19010270E-12
  0.838000000       2.55323822E-12
  0.838999987       1.98257600E-12
  0.839999974       1.49920115E-12
  0.841000021       1.12069241E-12
  0.842000008       8.60452443E-13
  0.842999995       7.27203454E-13
  0.843999982       7.24669456E-13
  0.845000029       8.51464298E-13
  0.846000016       1.10119032E-12
  0.847000003       1.46274735E-12
  0.847999990       1.92084196E-12
  0.848999977       2.45667939E-12
  0.850000024       3.04880904E-12
  0.851000011       3.67409141E-12
  0.851999998       4.30874824E-12
  0.852999985       4.92944921E-12
  0.853999972       5.51439536E-12
  0.855000019       6.04434645E-12
  0.856000006       6.50355247E-12