   0.00000000       0.00000000    
   1.00000005E-03   0.00000000    
   2.00000009E-03   0.00000000    
   3.00000003E-03   0.00000000    
   4.00000019E-03   0.00000000    
   4.99999989E-03   0.00000000    
   6.00000005E-03   0.00000000    
   7.00000022E-03   0.00000000    
   8.00000038E-03   0.00000000    
   8.99999961E-03   0.00000000    
   9.99999978E-03   0.00000000    
   1.09999999E-02   0.00000000    
   1.20000001E-02   0.00000000    
   1.30000003E-02  -1.29951790E-37
   1.40000004E-02  -6.51936959E-37
   1.49999997E-02  -1.09300482E-36
   1.60000008E-02  -2.04754306E-36
   1.70000009E-02  -4.47475845E-36
   1.79999992E-02  -4.94874261E-36
   1.89999994E-02   1.51144567E-35
   1.99999996E-02   1.19730895E-34
   2.09999997E-02   4.91329318E-34
   2.19999999E-02   1.59420470E-33
   2.30000000E-02   4.48727409E-33
   2.40000002E-02   1.14836424E-32
   2.50000004E-02   2.73639803E-32
   2.60000005E-02   6.13828221E-32
   2.70000007E-02   1.30403289E-31
   2.80000009E-02   2.63620830E-31
   2.89999992E-02   5.09156303E-31
   2.99999993E-02   9.42373885E-31
   3.09999995E-02   1.67507230E-30
   3.20000015E-02   2.86326895E-30
   3.29999998E-02   4.70911312E-30
   3.40000018E-02   7.44906820E-30
   3.50000001E-02   1.13160000E-29
   3.59999985E-02   1.64570894E-29
   3.70000005E-02   2.27829102E-29
   3.79999988E-02   2.97163889E-29
   3.90000008E-02   3.58051442E-29
   3.99999991E-02   3.81591060E-29
   4.10000011E-02   3.16805154E-29
   4.19999994E-02   8.06937112E-30
   4.30000015E-02  -4.53809942E-29
   4.39999998E-02  -1.47131310E-28
   4.50000018E-02  -3.22742236E-28
   4.60000001E-02  -6.05967953E-28
   4.69999984E-02  -1.03921206E-27
   4.80000004E-02  -1.67280054E-27
   4.89999987E-02  -2.56235388E-27
   5.00000007E-02  -3.76337650E-27
   5.09999990E-02  -5.32204856E-27
   5.20000011E-02  -7.26115957E-27
   5.29999994E-02  -9.56020454E-27
   5.40000014E-02  -1.21289359E-26
   5.49999997E-02  -1.47742138E-26
   5.60000017E-02  -1.71608524E-26
   5.70000000E-02  -1.87684384E-26
   5.79999983E-02  -1.88477282E-26
   5.90000004E-02  -1.63823283E-26
   5.99999987E-02  -1.00637528E-26
   6.10000007E-02   1.70948354E-27
   6.19999990E-02   2.07955475E-26
   6.30000010E-02   4.92204400E-26
   6.40000030E-02   8.90201120E-26
   6.49999976E-02   1.41997219E-25
   6.59999996E-02   2.09378377E-25
   6.70000017E-02   2.91362866E-25
   6.80000037E-02   3.86562181E-25
   6.89999983E-02   4.91341818E-25
   7.00000003E-02   5.99093315E-25
   7.10000023E-02   6.99485726E-25
   7.19999969E-02   7.77768486E-25
   7.29999989E-02   8.14226087E-25
   7.40000010E-02   7.83911050E-25
   7.50000030E-02   6.56807118E-25
   7.59999976E-02   3.98594307E-25
   7.69999996E-02  -2.78031807E-26
   7.80000016E-02  -6.59710176E-25
   7.90000036E-02  -1.53108317E-24
   7.99999982E-02  -2.66768343E-24
   8.10000002E-02  -4.08101688E-24
   8.20000023E-02  -5.76113087E-24
   8.29999968E-02  -7.66850739E-24
   8.39999989E-02  -9.72546141E-24
   8.50000009E-02  -1.18076590E-23
   8.60000029E-02  -1.37365974E-23
   8.69999975E-02  -1.52740921E-23
   8.79999995E-02  -1.61200318E-23
   8.90000015E-02  -1.59148144E-23
   9.00000036E-02  -1.42479513E-23
   9.09999982E-02  -1.06743254E-23
   9.20000002E-02  -4.73941282E-24
   9.30000022E-02   3.98554657E-24
   9.39999968E-02   1.58579643E-23
   9.49999988E-02   3.11081713E-23
   9.60000008E-02   4.97747565E-23
   9.70000029E-02   7.16333538E-23
   9.79999974E-02   9.61225309E-23
   9.89999995E-02   1.22271900E-22
  0.100000001       1.48639002E-22
  0.101000004       1.73262746E-22
  0.101999998       1.93642507E-22
  0.103000000       2.06752504E-22
  0.104000002       2.09101315E-22
  0.104999997       1.96845812E-22
  0.105999999       1.65967272E-22
  0.107000001       1.12514966E-22
  0.108000003       3.29188563E-23
  0.108999997      -7.56317048E-23
  0.109999999      -2.14752298E-22
  0.111000001      -3.84386499E-22
  0.112000003      -5.82310917E-22
  0.112999998      -8.03653070E-22
  0.114000000      -1.04046033E-21
  0.115000002      -1.28136477E-21
  0.115999997      -1.51139469E-21
  0.116999999      -1.71198336E-21
  0.118000001      -1.86122847E-21
  0.119000003      -1.93444991E-21
  0.119999997      -1.90508399E-21
  0.120999999      -1.74593917E-21
  0.122000001      -1.43082011E-21
  0.123000003      -9.36501739E-22
  0.123999998      -2.45007904E-22
  0.125000000       6.53883598E-22
  0.126000002       1.76002022E-21
  0.127000004       3.06028372E-21
  0.128000006       4.52620468E-21
  0.128999993       6.11198746E-21
  0.129999995       7.75316630E-21
  0.130999997       9.36612326E-21
  0.131999999       1.08486935E-20
  0.133000001       1.20820593E-20
  0.134000003       1.29340998E-20
  0.135000005       1.32642943E-20
  0.136000007       1.29302119E-20
  0.136999995       1.17955180E-20
  0.137999997       9.73931501E-21
  0.138999999       6.66652038E-21
  0.140000001       2.51886089E-21
  0.141000003      -2.71407087E-21
  0.142000005      -8.98434710E-21
  0.143000007      -1.61765719E-20
  0.143999994      -2.41008862E-20
  0.144999996      -3.24889403E-20
  0.145999998      -4.09935977E-20
  0.147000000      -4.91931193E-20
  0.148000002      -5.66003375E-20
  0.149000004      -6.26772005E-20
  0.150000006      -6.68547598E-20
  0.150999993      -6.85583448E-20
  0.151999995      -6.72373890E-20
  0.152999997      -6.23989059E-20
  0.153999999      -5.36432540E-20
  0.155000001      -4.07005529E-20
  0.156000003      -2.34656987E-20
  0.157000005      -2.02977198E-21
  0.158000007       2.32945030E-20
  0.158999994       5.19555826E-20
  0.159999996       8.31563959E-20
  0.160999998       1.15859957E-19
  0.162000000       1.48808590E-19
  0.163000003       1.80557604E-19
  0.164000005       2.09523221E-19
  0.165000007       2.34043827E-19
  0.165999994       2.52452576E-19
  0.166999996       2.63158568E-19
  0.167999998       2.64732538E-19
  0.169000000       2.55992702E-19
  0.170000002       2.36085541E-19
  0.171000004       2.04555949E-19
  0.172000006       1.61401407E-19
  0.172999993       1.07105162E-19
  0.173999995       4.26442625E-20
  0.174999997      -3.05304868E-20
  0.175999999      -1.10543900E-19
  0.177000001      -1.95174338E-19
  0.178000003      -2.81957385E-19
  0.179000005      -3.68309664E-19
  0.180000007      -4.51665585E-19
  0.180999994      -5.29617173E-19
  0.181999996      -6.00045605E-19
  0.182999998      -6.61232362E-19
  0.184000000      -7.11937189E-19
  0.185000002      -7.51431134E-19
  0.186000004      -7.79474780E-19
  0.187000006      -7.96234338E-19
  0.187999994      -8.02132963E-19
  0.188999996      -7.97639098E-19
  0.189999998      -7.83000069E-19
  0.191000000      -7.57935566E-19
  0.192000002      -7.21312144E-19
  0.193000004      -6.70826571E-19
  0.194000006      -6.02730633E-19
  0.194999993      -5.11634835E-19
  0.195999995      -3.90430490E-19
  0.196999997      -2.30368637E-19
  0.197999999      -2.13315146E-20
  0.199000001       2.47674884E-19
  0.200000003       5.87789425E-19
  0.201000005       1.00932082E-18
  0.202000007       1.52054191E-18
  0.202999994       2.12628679E-18
  0.203999996       2.82640522E-18
  0.204999998       3.61415103E-18
  0.206000000       4.47460499E-18
  0.207000002       5.38325048E-18
  0.208000004       6.30483928E-18
  0.209000006       7.19269029E-18
  0.209999993       7.98857121E-18
  0.210999995       8.62330743E-18
  0.211999997       9.01823985E-18
  0.213000000       9.08763451E-18
  0.214000002       8.74209718E-18
  0.215000004       7.89300373E-18
  0.216000006       6.45789045E-18
  0.216999993       4.36668439E-18
  0.217999995       1.56857277E-18
  0.218999997      -1.96076567E-18
  0.219999999      -6.21191630E-18
  0.221000001      -1.11348892E-17
  0.222000003      -1.66331645E-17
  0.223000005      -2.25591344E-17
  0.224000007      -2.87114589E-17
  0.224999994      -3.48348752E-17
  0.225999996      -4.06229061E-17
  0.226999998      -4.57238741E-17
  0.228000000      -4.97505000E-17
  0.229000002      -5.22931937E-17
  0.230000004      -5.29370016E-17
  0.231000006      -5.12819488E-17
  0.231999993      -4.69662432E-17
  0.232999995      -3.96916463E-17
  0.233999997      -2.92500263E-17
  0.234999999      -1.55498540E-17
  0.236000001       1.35868965E-18
  0.237000003       2.12615891E-17
  0.238000005       4.37634693E-17
  0.238999993       6.82763282E-17
  0.239999995       9.40161176E-17
  0.240999997       1.20008581E-16
  0.241999999       1.45105505E-16
  0.243000001       1.68012241E-16
  0.244000003       1.87326736E-16
  0.245000005       2.01589937E-16
  0.246000007       2.09346787E-16
  0.246999994       2.09216238E-16
  0.247999996       1.99968200E-16
  0.248999998       1.80604669E-16
  0.250000000       1.50441522E-16
  0.250999987       1.09187113E-16
  0.252000004       5.70133509E-17
  0.252999991      -5.38529982E-18
  0.254000008      -7.67494105E-17
  0.254999995      -1.55233187E-16
  0.256000012      -2.38407932E-16
  0.256999999      -3.23293577E-16
  0.257999986      -4.06420437E-16
  0.259000003      -4.83922364E-16
  0.259999990      -5.51660912E-16
  0.261000007      -6.05378524E-16
  0.261999995      -6.40876933E-16
  0.263000011      -6.54216326E-16
  0.263999999      -6.41927360E-16
  0.264999986      -6.01228274E-16
  0.266000003      -5.30237225E-16
  0.266999990      -4.28169279E-16
  0.268000007      -2.95507164E-16
  0.268999994      -1.34134126E-16
  0.270000011       5.25814694E-17
  0.270999998       2.59759541E-16
  0.272000015       4.81047587E-16
  0.273000002       7.08731949E-16
  0.273999989       9.33923493E-16
  0.275000006       1.14681845E-15
  0.275999993       1.33702975E-15
  0.277000010       1.49398200E-15
  0.277999997       1.60735841E-15
  0.279000014       1.66758521E-15
  0.280000001       1.66633488E-15
  0.280999988       1.59702715E-15
  0.282000005       1.45530456E-15
  0.282999992       1.23945823E-15
  0.284000009       9.50778919E-16
  0.284999996       5.93809748E-16
  0.286000013       1.76479500E-16
  0.287000000      -2.89902505E-16
  0.287999988      -7.90802930E-16
  0.289000005      -1.30877983E-15
  0.289999992      -1.82395924E-15
  0.291000009      -2.31466534E-15
  0.291999996      -2.75819233E-15
  0.293000013      -3.13169362E-15
  0.294000000      -3.41316288E-15
  0.294999987      -3.58246783E-15
  0.296000004      -3.62239569E-15
  0.296999991      -3.51966605E-15
  0.298000008      -3.26586025E-15
  0.298999995      -2.85821824E-15
  0.300000012      -2.30025709E-15
  0.300999999      -1.60216557E-15
  0.301999986      -7.80938543E-16
  0.303000003       1.39776609E-16
  0.303999990       1.13014016E-15
  0.305000007       2.15489184E-15
  0.305999994       3.17442453E-15
  0.307000011       4.14613819E-15
  0.307999998       5.02603474E-15
  0.308999985       5.77050343E-15
  0.310000002       6.33823023E-15
  0.310999990       6.69215787E-15
  0.312000006       6.80141241E-15
  0.312999994       6.64310576E-15
  0.314000010       6.20392553E-15
  0.314999998       5.48142760E-15
  0.316000015       4.48494798E-15
  0.317000002       3.23606481E-15
  0.317999989       1.76856085E-15
  0.319000006       1.27848930E-16
  0.319999993      -1.63015302E-15
  0.321000010      -3.44068447E-15
  0.321999997      -5.23230759E-15
  0.323000014      -6.92951301E-15
  0.324000001      -8.45568088E-15
  0.324999988      -9.73629136E-15
  0.326000005      -1.07022562E-14
  0.326999992      -1.12932319E-14
  0.328000009      -1.14607700E-14
  0.328999996      -1.11711491E-14
  0.330000013      -1.04077471E-14
  0.331000000      -9.17281794E-15
  0.331999987      -7.48855730E-15
  0.333000004      -5.39736340E-15
  0.333999991      -2.96124095E-15
  0.335000008      -2.60315459E-16
  0.335999995       2.60952470E-15
  0.337000012       5.53980596E-15
  0.338000000       8.41337328E-15
  0.338999987       1.11088879E-14
  0.340000004       1.35057531E-14
  0.340999991       1.54892731E-14
  0.342000008       1.69558344E-14
  0.342999995       1.78178734E-14
  0.344000012       1.80084067E-14
  0.344999999       1.74849030E-14
  0.345999986       1.62322887E-14
  0.347000003       1.42649107E-14
  0.347999990       1.16273238E-14
  0.349000007       8.39381190E-15
  0.349999994       4.66660520E-15
  0.351000011       5.72815136E-16
  0.351999998      -3.73984104E-15
  0.352999985      -8.10837789E-15
  0.354000002      -1.23607594E-14
  0.354999989      -1.63227535E-14
  0.356000006      -1.98251500E-14
  0.356999993      -2.27110252E-14
  0.358000010      -2.48427462E-14
  0.358999997      -2.61083913E-14
  0.360000014      -2.64272721E-14
  0.361000001      -2.57542926E-14
  0.361999989      -2.40829051E-14
  0.363000005      -2.14464897E-14
  0.363999993      -1.79180469E-14
  0.365000010      -1.36081704E-14
  0.365999997      -8.66133879E-15
  0.367000014      -3.25064479E-15
  0.368000001       2.42882844E-15
  0.368999988       8.16772865E-15
  0.370000005       1.37509218E-14
  0.370999992       1.89663823E-14
  0.372000009       2.36140775E-14
  0.372999996       2.75144507E-14
  0.374000013       3.05161000E-14
  0.375000000       3.25022839E-14
  0.375999987       3.33959375E-14
  0.377000004       3.31629425E-14
  0.377999991       3.18134733E-14
  0.379000008       2.94013471E-14
  0.379999995       2.60213892E-14
  0.381000012       2.18049167E-14
  0.381999999       1.69135539E-14
  0.382999986       1.15316819E-14
  0.384000003       5.85788378E-15
  0.384999990       9.58140377E-17
  0.386000007      -5.55504112E-15
  0.386999995      -1.09082428E-14
  0.388000011      -1.57984553E-14
  0.388999999      -2.00882503E-14
  0.389999986      -2.36733037E-14
  0.391000003      -2.64856954E-14
  0.391999990      -2.84951506E-14
  0.393000007      -2.97081289E-14
  0.393999994      -3.01648389E-14
  0.395000011      -2.99343476E-14
  0.395999998      -2.91080704E-14
  0.397000015      -2.77920370E-14
  0.398000002      -2.60983980E-14
  0.398999989      -2.41367137E-14
  0.400000006      -2.20055890E-14
  0.400999993      -1.97852107E-14
  0.402000010      -1.75313103E-14
  0.402999997      -1.52710079E-14
  0.404000014      -1.30009020E-14
  0.405000001      -1.06876254E-14
  0.405999988      -8.27096841E-15
  0.407000005      -5.66949348E-15
  0.407999992      -2.78840218E-15
  0.409000009       4.70737184E-16
  0.409999996       4.19893375E-15
  0.411000013       8.46805688E-15
  0.412000000       1.33192068E-14
  0.412999988       1.87519813E-14
  0.414000005       2.47154473E-14
  0.414999992       3.11015862E-14
  0.416000009       3.77419043E-14
  0.416999996       4.44077487E-14
  0.418000013       5.08147161E-14
  0.419000000       5.66312947E-14
  0.419999987       6.14916646E-14
  0.421000004       6.50123401E-14
  0.421999991       6.68120547E-14
  0.423000008       6.65340518E-14
  0.423999995       6.38697537E-14
  0.425000012       5.85826079E-14
  0.425999999       5.05307432E-14
  0.426999986       3.96870511E-14
  0.428000003       2.61553406E-14
  0.428999990       1.01812539E-14
  0.430000007      -7.84316426E-15
  0.430999994      -2.73821018E-14
  0.432000011      -4.77664139E-14
  0.432999998      -6.82120240E-14
  0.433999985      -8.78461054E-14
  0.435000002      -1.05740449E-13
  0.435999990      -1.20950884E-13
  0.437000006      -1.32561361E-13
  0.437999994      -1.39730865E-13
  0.439000010      -1.41741043E-13
  0.439999998      -1.38042179E-13
  0.441000015      -1.28295134E-13
  0.442000002      -1.12406802E-13
  0.442999989      -9.05567803E-14
  0.444000006      -6.32132015E-14
  0.444999993      -3.11360739E-14
  0.446000010       4.63305338E-15
  0.446999997       4.27957196E-14
  0.448000014       8.18354173E-14
  0.449000001       1.20069956E-13
  0.449999988       1.55715854E-13
  0.451000005       1.86962628E-13
  0.451999992       2.12054197E-13
  0.453000009       2.29374083E-13
  0.453999996       2.37530671E-13
  0.455000013       2.35438540E-13
  0.456000000       2.22391739E-13
  0.456999987       1.98124991E-13
  0.458000004       1.62859187E-13
  0.458999991       1.17327860E-13
  0.460000008       6.27821566E-14
  0.460999995       9.72522572E-16
  0.462000012      -6.58935661E-14
  0.463000000      -1.35217575E-13
  0.463999987      -2.04098105E-13
  0.465000004      -2.69438741E-13
  0.465999991      -3.28072069E-13
  0.467000008      -3.76895075E-13
  0.467999995      -4.13010717E-13
  0.469000012      -4.33869493E-13
  0.469999999      -4.37404887E-13
  0.470999986      -4.22156044E-13
  0.472000003      -3.87371450E-13
  0.472999990      -3.33087968E-13
  0.474000007      -2.60180115E-13
  0.474999994      -1.70375704E-13
  0.476000011      -6.62352456E-14
  0.476999998       4.89060086E-14
  0.477999985       1.71033069E-13
  0.479000002       2.95581024E-13
  0.479999989       4.17595890E-13
  0.481000006       5.31921241E-13
  0.481999993       6.33403594E-13
  0.483000010       7.17109044E-13
  0.483999997       7.78541890E-13
  0.485000014       8.13856090E-13
  0.486000001       8.20050028E-13
  0.486999989       7.95135442E-13
  0.488000005       7.38271857E-13
  0.488999993       6.49859398E-13
  0.490000010       5.31583783E-13
  0.490999997       3.86409437E-13
  0.492000014       2.18518834E-13
  0.493000001       3.31983315E-14
  0.493999988      -1.63327102E-13
  0.495000005      -3.64105393E-13
  0.495999992      -5.61707690E-13
  0.497000009      -7.48509165E-13
  0.497999996      -9.16988816E-13
  0.499000013      -1.06003682E-12
  0.500000000      -1.17125656E-12
  0.500999987      -1.24524848E-12
  0.501999974      -1.27786302E-12
  0.503000021      -1.26641102E-12
  0.504000008      -1.20982120E-12
  0.504999995      -1.10873615E-12
  0.505999982      -9.65541015E-13
  0.507000029      -7.84321338E-13
  0.508000016      -5.70749990E-13
  0.509000003      -3.31905076E-13
  0.509999990      -7.60251915E-14
  0.510999978       1.87789915E-13
  0.512000024       4.49922163E-13
  0.513000011       7.00608137E-13
  0.513999999       9.30327538E-13
  0.514999986       1.13019067E-12
  0.515999973       1.29230925E-12
  0.517000020       1.41013438E-12
  0.518000007       1.47874627E-12
  0.518999994       1.49508260E-12
  0.519999981       1.45809460E-12
  0.521000028       1.36882302E-12
  0.522000015       1.23038851E-12
  0.523000002       1.04789506E-12
  0.523999989       8.28249741E-13
  0.524999976       5.79904018E-13
  0.526000023       3.12525965E-13
  0.527000010       3.66169362E-14
  0.527999997      -2.36912405E-13
  0.528999984      -4.97189529E-13
  0.529999971      -7.33831941E-13
  0.531000018      -9.37384502E-13
  0.532000005      -1.09972296E-12
  0.532999992      -1.21440651E-12
  0.533999979      -1.27696259E-12
  0.535000026      -1.28509172E-12
  0.536000013      -1.23878208E-12
  0.537000000      -1.14032752E-12
  0.537999988      -9.94247111E-13
  0.538999975      -8.07108883E-13
  0.540000021      -5.87263745E-13
  0.541000009      -3.44500090E-13
  0.541999996      -8.96335415E-14
  0.542999983       1.65951440E-13
  0.544000030       4.10788699E-13
  0.545000017       6.33825241E-13
  0.546000004       8.24902375E-13
  0.546999991       9.75202124E-13
  0.547999978       1.07763917E-12
  0.549000025       1.12718060E-12
  0.550000012       1.12107936E-12
  0.550999999       1.05900943E-12
  0.551999986       9.43097380E-13
  0.552999973       7.77847079E-13
  0.554000020       5.69960854E-13
  0.555000007       3.28063531E-13
  0.555999994       6.23413810E-14
  0.556999981      -2.15888776E-13
  0.558000028      -4.94662145E-13
  0.559000015      -7.61878950E-13
  0.560000002      -1.00582520E-12
  0.560999990      -1.21567903E-12
  0.561999977      -1.38197949E-12
  0.563000023      -1.49703709E-12
  0.564000010      -1.55526872E-12
  0.564999998      -1.55344054E-12
  0.565999985      -1.49080845E-12
  0.566999972      -1.36915056E-12
  0.568000019      -1.19268896E-12
  0.569000006      -9.67904468E-13
  0.569999993      -7.03253048E-13
  0.570999980      -4.08796586E-13
  0.572000027      -9.57640949E-14
  0.573000014       2.23936443E-13
  0.574000001       5.38233520E-13
  0.574999988       8.35411709E-13
  0.575999975       1.10461152E-12
  0.577000022       1.33628720E-12
  0.578000009       1.52260181E-12
  0.578999996       1.65774154E-12
  0.579999983       1.73813513E-12
  0.580999970       1.76256904E-12
  0.582000017       1.73219306E-12
  0.583000004       1.65041711E-12
  0.583999991       1.52270449E-12
  0.584999979       1.35627111E-12
  0.586000025       1.15970731E-12
  0.587000012       9.42537931E-13
  0.588000000       7.14744182E-13
  0.588999987       4.86269553E-13
  0.589999974       2.66533540E-13
  0.591000021       6.39773269E-14
  0.592000008      -1.14336844E-13
  0.592999995      -2.63052817E-13
  0.593999982      -3.78758114E-13
  0.595000029      -4.60120115E-13
  0.596000016      -5.07913861E-13
  0.597000003      -5.24939575E-13
  0.597999990      -5.15834120E-13
  0.598999977      -4.86784495E-13
  0.600000024      -4.45157664E-13
  0.601000011      -3.99064869E-13
  0.601999998      -3.56881300E-13
  0.602999985      -3.26745385E-13
  0.603999972      -3.16063067E-13
  0.605000019      -3.31041862E-13
  0.606000006      -3.76279167E-13
  0.606999993      -4.54427023E-13
  0.607999980      -5.65951474E-13
  0.609000027      -7.09000783E-13
  0.610000014      -8.79391666E-13
  0.611000001      -1.07071784E-12
  0.611999989      -1.27457745E-12
  0.612999976      -1.48091251E-12
  0.614000022      -1.67844579E-12
  0.615000010      -1.85519720E-12
  0.615999997      -1.99905630E-12
  0.616999984      -2.09838505E-12
  0.617999971      -2.14262375E-12
  0.619000018      -2.12286937E-12
  0.620000005      -2.03239877E-12
  0.620999992      -1.86711193E-12
  0.621999979      -1.62586979E-12
  0.623000026      -1.31070859E-12
  0.624000013      -9.26917505E-13
  0.625000000      -4.82971410E-13
  0.625999987       9.68222356E-15
  0.626999974       5.36976930E-13
  0.628000021       1.08270944E-12
  0.629000008       1.62913216E-12
  0.629999995       2.15763301E-12
  0.630999982       2.64947352E-12
  0.632000029       3.08655575E-12
  0.633000016       3.45218363E-12
  0.634000003       3.73178571E-12
  0.634999990       3.91356565E-12
  0.635999978       3.98905301E-12
  0.637000024       3.95352587E-12
  0.638000011       3.80628385E-12
  0.638999999       3.55075973E-12
  0.639999986       3.19445902E-12
  0.640999973       2.74872659E-12
  0.642000020       2.22834945E-12
  0.643000007       1.65100811E-12
  0.643999994       1.03659778E-12
  0.644999981       4.06447662E-13
  0.646000028      -2.17530936E-13
  0.647000015      -8.13732328E-13
  0.648000002      -1.36174123E-12
  0.648999989      -1.84317687E-12
  0.649999976      -2.24246121E-12
  0.651000023      -2.54747438E-12
  0.652000010      -2.75006992E-12
  0.652999997      -2.84642470E-12
  0.653999984      -2.83720681E-12
  0.654999971      -2.72755191E-12
  0.656000018      -2.52684635E-12
  0.657000005      -2.24832436E-12
  0.657999992      -1.90849441E-12
  0.658999979      -1.52641745E-12
  0.660000026      -1.12286742E-12
  0.661000013      -7.19407823E-13
  0.662000000      -3.37423747E-13
  0.662999988       2.84815845E-15
  0.663999975       2.83250420E-13
  0.665000021       4.88554618E-13
  0.666000009       6.07192248E-13
  0.666999996       6.31833182E-13
  0.667999983       5.59784098E-13
  0.669000030       3.93186650E-13
  0.670000017       1.39004273E-13
  0.671000004      -1.91205911E-13
  0.671999991      -5.81728784E-13
  0.672999978      -1.01331888E-12
  0.674000025      -1.46399678E-12
  0.675000012      -1.90998194E-12
  0.675999999      -2.32672280E-12
  0.676999986      -2.68998365E-12
  0.677999973      -2.97693922E-12
  0.679000020      -3.16723275E-12
  0.680000007      -3.24394960E-12
  0.680999994      -3.19446249E-12
  0.681999981      -3.01111133E-12
  0.683000028      -2.69168455E-12
  0.684000015      -2.23967719E-12
  0.685000002      -1.66431192E-12
  0.685999990      -9.80314896E-13
  0.686999977      -2.07456068E-13
  0.688000023       6.30135809E-13
  0.689000010       1.50485657E-12
  0.689999998       2.38667376E-12
  0.690999985       3.24429741E-12
  0.691999972       4.04642899E-12
  0.693000019       4.76303372E-12
  0.694000006       5.36658652E-12
  0.694999993       5.83323711E-12
  0.695999980       6.14384455E-12
  0.697000027       6.28483637E-12
  0.698000014       6.24885213E-12
  0.699000001       6.03514027E-12
  0.699999988       5.64969035E-12
  0.700999975       5.10508823E-12
  0.702000022       4.42009580E-12
  0.703000009       3.61897057E-12
  0.703999996       2.73054626E-12
  0.704999983       1.78711061E-12
  0.705999970       8.23124663E-13
  0.707000017      -1.26166601E-13
  0.708000004      -1.02617611E-12
  0.708999991      -1.84440874E-12
  0.709999979      -2.55182724E-12
  0.711000025      -3.12409300E-12
  0.712000012      -3.54262583E-12
  0.713000000      -3.79543749E-12
  0.713999987      -3.87769938E-12
  0.714999974      -3.79201445E-12
  0.716000021      -3.54838099E-12
  0.717000008      -3.16383985E-12
  0.717999995      -2.66182063E-12
  0.718999982      -2.07120193E-12
  0.720000029      -1.42512608E-12
  0.721000016      -7.59612100E-13
  0.722000003      -1.12019904E-13
  0.722999990       4.80570119E-13
  0.723999977       9.82996670E-13
  0.725000024       1.36360714E-12
  0.726000011       1.59573049E-12
  0.726999998       1.65896854E-12
  0.727999985       1.54024872E-12
  0.728999972       1.23458893E-12
  0.730000019       7.45536770E-13
  0.731000006       8.52599783E-14
  0.731999993      -7.25724710E-13
  0.732999980      -1.65917952E-12
  0.734000027      -2.68011091E-12
  0.735000014      -3.74803964E-12
  0.736000001      -4.81852839E-12
  0.736999989      -5.84491136E-12
  0.737999976      -6.78015543E-12
  0.739000022      -7.57878049E-12
  0.740000010      -8.19876198E-12
  0.740999997      -8.60333853E-12
  0.741999984      -8.76264339E-12
  0.742999971      -8.65509747E-12
  0.744000018      -8.26850047E-12
  0.745000005      -7.60076637E-12
  0.745999992      -6.66027086E-12
  0.746999979      -5.46579188E-12
  0.748000026      -4.04603434E-12
  0.749000013      -2.43875384E-12
  0.750000000      -6.89509918E-13
  0.750999987       1.14991220E-12
  0.751999974       3.02334676E-12
  0.753000021       4.87229181E-12
  0.754000008       6.63807637E-12
  0.754999995       8.26406131E-12
  0.755999982       9.69779031E-12
  0.757000029       1.08930000E-11
  0.758000016       1.18114130E-11
  0.759000003       1.24242379E-11
  0.759999990       1.27133122E-11
  0.760999978       1.26718427E-11
  0.762000024       1.23047093E-11
  0.763000011       1.16283190E-11
  0.763999999       1.06700091E-11
  0.764999986       9.46702525E-12
  0.765999973       8.06511281E-12
  0.767000020       6.51677497E-12
  0.768000007       4.87926539E-12
  0.768999994       3.21239845E-12
  0.769999981       1.57626429E-12
  0.771000028       2.89388739E-14
  0.772000015      -1.37571638E-12
  0.773000002      -2.59007659E-12
  0.773999989      -3.57451655E-12
  0.774999976      -4.29884080E-12
  0.776000023      -4.74332466E-12
  0.777000010      -4.89932313E-12
  0.777999997      -4.76942444E-12
  0.778999984      -4.36714423E-12
  0.779999971      -3.71617320E-12
  0.781000018      -2.84921240E-12
  0.782000005      -1.80644638E-12
  0.782999992      -6.33719477E-13
  0.783999979       6.19504610E-13
  0.785000026       1.90231468E-12
  0.786000013       3.16456193E-12
  0.787000000       4.35901098E-12
  0.787999988       5.44334109E-12
  0.788999975       6.38191409E-12
  0.790000021       7.14722986E-12
  0.791000009       7.72101046E-12
  0.791999996       8.09486332E-12
  0.792999983       8.27050147E-12
  0.794000030       8.25950766E-12
  0.795000017       8.08265520E-12
  0.796000004       7.76881944E-12
  0.796999991       7.35352404E-12
  0.797999978       6.87719326E-12
  0.799000025       6.38318304E-12
  0.800000012       5.91568287E-12
  0.800999999       5.51758292E-12
  0.801999986       5.22839931E-12
  0.802999973       5.08235424E-12
  0.804000020       5.10669762E-12
  0.805000007       5.32034443E-12
  0.805999994       5.73289550E-12
  0.806999981       6.34408411E-12
  0.808000028       7.14367584E-12
  0.809000015       8.11183412E-12
  0.810000002       9.21992777E-12
  0.810999990       1.04317544E-11
  0.811999977       1.17051334E-11
  0.813000023       1.29937823E-11
  0.814000010       1.42494055E-11
  0.814999998       1.54239069E-11
  0.815999985       1.64716088E-11
  0.816999972       1.73513946E-11
  0.818000019       1.80286810E-11
  0.819000006       1.84771070E-11
  0.819999993       1.86798771E-11
  0.820999980       1.86306873E-11
  0.822000027       1.83341849E-11
  0.823000014       1.78059529E-11
  0.824000001       1.70719931E-11
  0.824999988       1.61677217E-11
  0.825999975       1.51365361E-11
  0.827000022       1.40280010E-11
  0.828000009       1.28957209E-11
  0.828999996       1.17949981E-11
  0.829999983       1.07803809E-11
  0.830999970       9.90319892E-12
  0.832000017       9.20919677E-12
  0.833000004       8.73638054E-12
  0.833999991       8.51316760E-12
  0.834999979       8.55693034E-12
  0.836000025       8.87300042E-12
  0.837000012       9.45418570E-12
  0.838000000       1.02808335E-11
  0.838999987       1.13214368E-11
  0.839999974       1.25337848E-11
  0.841000021       1.38666006E-11
  0.842000008       1.52616045E-11
  0.842999995       1.66559301E-11
  0.843999982       1.79847873E-11
  0.845000029       1.91842688E-11
  0.846000016       2.01941831E-11
  0.847000003       2.09607835E-11
  0.847999990       2.14392774E-11
  0.848999977       2.15960201E-11
  0.850000024       2.14102763E-11
  0.851000011       2.08754750E-11
  0.851999998       1.99999097E-11
  0.852999985       1.88068242E-11
  0.853999972       1.73338687E-11
  0.855000019       1.56319679E-11
  0.856000006       1.37636074E-11