   0.00000000       0.00000000    
   1.00000005E-03   0.00000000    
   2.00000009E-03   0.00000000    
   3.00000003E-03   0.00000000    
   4.00000019E-03   0.00000000    
   4.99999989E-03   0.00000000    
   6.00000005E-03   0.00000000    
   7.00000022E-03   0.00000000    
   8.00000038E-03   0.00000000    
   8.99999961E-03   0.00000000    
   9.99999978E-03   0.00000000    
   1.09999999E-02   0.00000000    
   1.20000001E-02   0.00000000    
   1.30000003E-02   0.00000000    
   1.40000004E-02   0.00000000    
   1.49999997E-02   0.00000000    
   1.60000008E-02   0.00000000    
   1.70000009E-02   0.00000000    
   1.79999992E-02  -5.60627958E-38
   1.89999994E-02  -2.19161847E-37
   1.99999996E-02  -6.52945804E-37
   2.09999997E-02  -1.72711986E-36
   2.19999999E-02  -4.23499570E-36
   2.30000000E-02  -9.81764287E-36
   2.40000002E-02  -2.16786270E-35
   2.50000004E-02  -4.57769126E-35
   2.60000005E-02  -9.26731392E-35
   2.70000007E-02  -1.80377060E-34
   2.80000009E-02  -3.38427533E-34
   2.89999992E-02  -6.13258663E-34
   2.99999993E-02  -1.07496901E-33
   3.09999995E-02  -1.82486351E-33
   3.20000015E-02  -3.00278177E-33
   3.29999998E-02  -4.79209668E-33
   3.40000018E-02  -7.41908043E-33
   3.50000001E-02  -1.11419012E-32
   3.59999985E-02  -1.62229667E-32
   3.70000005E-02  -2.28771698E-32
   3.79999988E-02  -3.11882543E-32
   3.90000008E-02  -4.09868255E-32
   3.99999991E-02  -5.16873388E-32
   4.10000011E-02  -6.20888299E-32
   4.19999994E-02  -7.01560125E-32
   4.30000015E-02  -7.28144283E-32
   4.39999998E-02  -6.58155349E-32
   4.50000018E-02  -4.37533985E-32
   4.60000001E-02  -3.41758819E-34
   4.69999984E-02   7.09174037E-32
   4.80000004E-02   1.75531963E-31
   4.89999987E-02   3.16154919E-31
   5.00000007E-02   4.89976373E-31
   5.09999990E-02   6.85392059E-31
   5.20000011E-02   8.78136598E-31
   5.29999994E-02   1.02731953E-30
   5.40000014E-02   1.07214319E-30
   5.49999997E-02   9.30506188E-31
   5.60000017E-02   5.01197454E-31
   5.70000000E-02  -3.28091335E-31
   5.79999983E-02  -1.66421412E-30
   5.90000004E-02  -3.58041097E-30
   5.99999987E-02  -6.07339375E-30
   6.10000007E-02  -9.00288968E-30
   6.19999990E-02  -1.20118769E-29
   6.30000010E-02  -1.44275640E-29
   6.40000030E-02  -1.51460909E-29
   6.49999976E-02  -1.25080310E-29
   6.59999996E-02  -4.17709717E-30
   6.70000017E-02   1.29588844E-29
   6.80000037E-02   4.28381167E-29
   6.89999983E-02   9.01914558E-29
   7.00000003E-02   1.60383080E-28
   7.10000023E-02   2.59076385E-28
   7.19999969E-02   3.91672810E-28
   7.29999989E-02   5.62472462E-28
   7.40000010E-02   7.73512881E-28
   7.50000030E-02   1.02305938E-27
   7.59999976E-02   1.30374711E-27
   7.69999996E-02   1.60041466E-27
   7.80000016E-02   1.88772412E-27
   7.90000036E-02   2.12772677E-27
   7.99999982E-02   2.26761534E-27
   8.10000002E-02   2.23798972E-27
   8.20000023E-02   1.95205326E-27
   8.29999968E-02   1.30624417E-27
   8.39999989E-02   1.82873187E-28
   8.50000009E-02  -1.54462182E-27
   8.60000029E-02  -4.00319985E-27
   8.69999975E-02  -7.30798509E-27
   8.79999995E-02  -1.15458915E-26
   8.90000015E-02  -1.67549711E-26
   9.00000036E-02  -2.28996922E-26
   9.09999982E-02  -2.98428330E-26
   9.20000002E-02  -3.73152655E-26
   9.30000022E-02  -4.48855507E-26
   9.39999968E-02  -5.19320631E-26
   9.49999988E-02  -5.76211184E-26
   9.60000008E-02  -6.08953102E-26
   9.70000029E-02  -6.04769551E-26
   9.79999974E-02  -5.48918569E-26
   9.89999995E-02  -4.25189095E-26
  0.100000001      -2.16704605E-26
  0.101000004       9.29219136E-27
  0.101999998       5.18055803E-26
  0.103000000       1.06912667E-25
  0.104000002       1.75035810E-25
  0.104999997       2.55720553E-25
  0.105999999       3.47361292E-25
  0.107000001       4.46924462E-25
  0.108000003       5.49691246E-25
  0.108999997       6.49045811E-25
  0.109999999       7.36341159E-25
  0.111000001       8.00878166E-25
  0.112000003       8.30034711E-25
  0.112999998       8.09583492E-25
  0.114000000       7.24232243E-25
  0.115000002       5.58414667E-25
  0.115999997       2.97349359E-25
  0.116999999      -7.16311155E-26
  0.118000001      -5.57498553E-25
  0.119000003      -1.16373628E-24
  0.119999997      -1.88640486E-24
  0.120999999      -2.71216493E-24
  0.122000001      -3.61638806E-24
  0.123000003      -4.56151798E-24
  0.123999998      -5.49587047E-24
  0.125000000      -6.35307986E-24
  0.126000002      -7.05241334E-24
  0.127000004      -7.50017079E-24
  0.128000006      -7.59237679E-24
  0.128999993      -7.21891900E-24
  0.129999995      -6.26924801E-24
  0.130999997      -4.63966451E-24
  0.131999999      -2.24211782E-24
  0.133000001       9.85686040E-25
  0.134000003       5.06920124E-24
  0.135000005       9.98547865E-24
  0.136000007       1.56517703E-23
  0.136999995       2.19151003E-23
  0.137999997       2.85437359E-23
  0.138999999       3.52216044E-23
  0.140000001       4.15467322E-23
  0.141000003       4.70348375E-23
  0.142000005       5.11290698E-23
  0.143000007       5.32167902E-23
  0.143999994       5.26539947E-23
  0.144999996       4.87976829E-23
  0.145999998       4.10459475E-23
  0.147000000       2.88851329E-23
  0.148000002       1.19427009E-23
  0.149000004      -9.95615511E-24
  0.150000006      -3.67308405E-23
  0.150999993      -6.79899398E-23
  0.151999995      -1.02982011E-22
  0.152999997      -1.40557040E-22
  0.153999999      -1.79143206E-22
  0.155000001      -2.16743863E-22
  0.156000003      -2.50959348E-22
  0.157000005      -2.79037722E-22
  0.158000007      -2.97957585E-22
  0.158999994      -3.04545091E-22
  0.159999996      -2.95625081E-22
  0.160999998      -2.68205236E-22
  0.162000000      -2.19688548E-22
  0.163000003      -1.48107966E-22
  0.164000005      -5.23740027E-23
  0.165000007       6.74768142E-23
  0.165999994       2.10046712E-22
  0.166999996       3.72371049E-22
  0.167999998       5.49760320E-22
  0.169000000       7.35708089E-22
  0.170000002       9.21883806E-22
  0.171000004       1.09822706E-21
  0.172000006       1.25315773E-21
  0.172999993       1.37391378E-21
  0.173999995       1.44702031E-21
  0.174999997       1.45889023E-21
  0.175999999       1.39654654E-21
  0.177000001       1.24845011E-21
  0.178000003       1.00540522E-21
  0.179000005       6.61507352E-22
  0.180000007       2.15089224E-22
  0.180999994      -3.30388730E-22
  0.181999996      -9.65561810E-22
  0.182999998      -1.67456202E-21
  0.184000000      -2.43466093E-21
  0.185000002      -3.21621817E-21
  0.186000004      -3.98299057E-21
  0.187000006      -4.69285169E-21
  0.187999994      -5.29895091E-21
  0.188999996      -5.75133066E-21
  0.189999998      -5.99898805E-21
  0.191000000      -5.99235162E-21
  0.192000002      -5.68611264E-21
  0.193000004      -5.04231126E-21
  0.194000006      -4.03356895E-21
  0.194999993      -2.64631113E-21
  0.195999995      -8.83810880E-22
  0.196999997       1.23113323E-21
  0.197999999       3.65408853E-21
  0.199000001       6.31765009E-21
  0.200000003       9.13106826E-21
  0.201000005       1.19810124E-20
  0.202000007       1.47336199E-20
  0.202999994       1.72379157E-20
  0.203999996       1.93306487E-20
  0.204999998       2.08425200E-20
  0.206000000       2.16056878E-20
  0.207000002       2.14623691E-20
  0.208000004       2.02742598E-20
  0.209000006       1.79324307E-20
  0.209999993       1.43672548E-20
  0.210999995       9.55786599E-21
  0.211999997       3.54061333E-21
  0.213000000      -3.58407181E-21
  0.214000002      -1.16469720E-20
  0.215000004      -2.04080999E-20
  0.216000006      -2.95579130E-20
  0.216999993      -3.87221501E-20
  0.217999995      -4.74705350E-20
  0.218999997      -5.53295102E-20
  0.219999999      -6.17988445E-20
  0.221000001      -6.63719836E-20
  0.222000003      -6.85595080E-20
  0.223000005      -6.79150438E-20
  0.224000007      -6.40627215E-20
  0.224999994      -5.67249639E-20
  0.225999996      -4.57493402E-20
  0.226999998      -3.11330685E-20
  0.228000000      -1.30435776E-20
  0.229000002       8.16629536E-21
  0.230000004       3.19499966E-20
  0.231000006       5.75671048E-20
  0.231999993       8.40924218E-20
  0.232999995       1.10435035E-19
  0.233999997       1.35367810E-19
  0.234999999       1.57567011E-19
  0.236000001       1.75661768E-19
  0.237000003       1.88291937E-19
  0.238000005       1.94172855E-19
  0.238999993       1.92164667E-19
  0.239999995       1.81343517E-19
  0.240999997       1.61071478E-19
  0.241999999       1.31061689E-19
  0.243000001       9.14350521E-20
  0.244000003       4.27649081E-20
  0.245000005      -1.38940558E-20
  0.246000007      -7.69957356E-20
  0.246999994      -1.44514179E-19
  0.247999996      -2.13978739E-19
  0.248999998      -2.82533956E-19
  0.250000000      -3.47024187E-19
  0.250999987      -4.04102002E-19
  0.252000004      -4.50357968E-19
  0.252999991      -4.82468033E-19
  0.254000008      -4.97354131E-19
  0.254999995      -4.92351497E-19
  0.256000012      -4.65376310E-19
  0.256999999      -4.15085203E-19
  0.257999986      -3.41019192E-19
  0.259000003      -2.43723210E-19
  0.259999990      -1.24833161E-19
  0.261000007       1.28769403E-20
  0.261999995       1.65494219E-19
  0.263000011       3.28017490E-19
  0.263999999       4.94462514E-19
  0.264999986       6.58022643E-19
  0.266000003       8.11283545E-19
  0.266999990       9.46487767E-19
  0.268000007       1.05584270E-18
  0.268999994       1.13186142E-18
  0.270000011       1.16772611E-18
  0.270999998       1.15765809E-18
  0.272000015       1.09727969E-18
  0.273000002       9.83950467E-19
  0.273999989       8.17059954E-19
  0.275000006       5.98259877E-19
  0.275999993       3.31618569E-19
  0.277000010       2.36846544E-20
  0.277999997      -3.16553438E-19
  0.279000014      -6.77819298E-19
  0.280000001      -1.04681599E-18
  0.280999988      -1.40860835E-18
  0.282000005      -1.74711381E-18
  0.282999992      -2.04569045E-18
  0.284000009      -2.28780518E-18
  0.284999996      -2.45776040E-18
  0.286000013      -2.54145122E-18
  0.287000000      -2.52712445E-18
  0.287999988      -2.40610421E-18
  0.289000005      -2.17345097E-18
  0.289999992      -1.82851645E-18
  0.291000009      -1.37536406E-18
  0.291999996      -8.23021600E-19
  0.293000013      -1.85541497E-19
  0.294000000       5.18151106E-19
  0.294999987       1.26463477E-18
  0.296000004       2.02659498E-18
  0.296999991       2.77364868E-18
  0.298000008       3.47337192E-18
  0.298999995       4.09250379E-18
  0.300000012       4.59829041E-18
  0.300999999       4.95991847E-18
  0.301999986       5.14999051E-18
  0.303000003       5.14597290E-18
  0.303999990       4.93155941E-18
  0.305000007       4.49787854E-18
  0.305999994       3.84448361E-18
  0.307000011       2.98006188E-18
  0.307999998       1.92281277E-18
  0.308999985       7.00449512E-19
  0.310000002      -6.50205010E-19
  0.310999990      -2.08404206E-18
  0.312000006      -3.54890923E-18
  0.312999994      -4.98725058E-18
  0.314000010      -6.33810311E-18
  0.314999998      -7.53939477E-18
  0.316000015      -8.53046302E-18
  0.317000002      -9.25471093E-18
  0.317999989      -9.66229012E-18
  0.319000006      -9.71269685E-18
  0.319999993      -9.37717254E-18
  0.321000010      -8.64078162E-18
  0.321999997      -7.50405513E-18
  0.323000014      -5.98410745E-18
  0.324000001      -4.11512263E-18
  0.324999988      -1.94816089E-18
  0.326000005       4.49768705E-19
  0.326999992       2.99737477E-18
  0.328000009       5.60147644E-18
  0.328999996       8.16006478E-18
  0.330000013       1.05659609E-17
  0.331000000       1.27109428E-17
  0.331999987       1.44902042E-17
  0.333000004       1.58069897E-17
  0.333999991       1.65771842E-17
  0.335000008       1.67337066E-17
  0.335999995       1.62304648E-17
  0.337000012       1.50456891E-17
  0.338000000       1.31844698E-17
  0.338999987       1.06803063E-17
  0.340000004       7.59557026E-18
  0.340999991       4.02076118E-18
  0.342000008       7.25199066E-20
  0.342999995      -4.10960120E-18
  0.344000012      -8.36755642E-18
  0.344999999      -1.25303007E-17
  0.345999986      -1.64202002E-17
  0.347000003      -1.98601334E-17
  0.347999990      -2.26810360E-17
  0.349000007      -2.47295835E-17
  0.349999994      -2.58757018E-17
  0.351000011      -2.60195468E-17
  0.351999998      -2.50976590E-17
  0.352999985      -2.30879294E-17
  0.354000002      -2.00131188E-17
  0.354999989      -1.59426705E-17
  0.356000006      -1.09926273E-17
  0.356999993      -5.32353590E-18
  0.358000010       8.63691331E-19
  0.358999997       7.33392145E-18
  0.360000014       1.38258144E-17
  0.361000001       2.00614708E-17
  0.361999989       2.57574034E-17
  0.363000005       3.06364538E-17
  0.363999993       3.44401843E-17
  0.365000010       3.69412376E-17
  0.365999997       3.79551394E-17
  0.367000014       3.73509998E-17
  0.368000001       3.50605433E-17
  0.368999988       3.10850272E-17
  0.370000005       2.54995596E-17
  0.370999992       1.84545004E-17
  0.372000009       1.01736813E-17
  0.372999996       9.49318483E-19
  0.374000013      -8.86636287E-18
  0.375000000      -1.88726468E-17
  0.375999987      -2.86346866E-17
  0.377000004      -3.77002652E-17
  0.377999991      -4.56183887E-17
  0.379000008      -5.19590259E-17
  0.379999995      -5.63331967E-17
  0.381000012      -5.84125964E-17
  0.381999999      -5.79478400E-17
  0.382999986      -5.47845095E-17
  0.384000003      -4.88760808E-17
  0.384999990      -4.02930992E-17
  0.386000007      -2.92278545E-17
  0.386999995      -1.59941476E-17
  0.388000011      -1.02181652E-18
  0.388999999       1.51540646E-17
  0.389999986       3.19091903E-17
  0.391000003       4.85508565E-17
  0.391999990       6.43430844E-17
  0.393000007       7.85351412E-17
  0.393999994       9.03925636E-17
  0.395000011       9.92294465E-17
  0.395999998       1.04440698E-16
  0.397000015       1.05532960E-16
  0.398000002       1.02152736E-16
  0.398999989       9.41104493E-17
  0.400000006       8.13990457E-17
  0.400999993       6.42061694E-17
  0.402000010       4.29189344E-17
  0.402999997       1.81206602E-17
  0.404000014      -9.42072195E-18
  0.405000001      -3.87726618E-17
  0.405999988      -6.88659690E-17
  0.407000005      -9.85301348E-17
  0.407999992      -1.26534890E-16
  0.409000009      -1.51636712E-16
  0.409999996      -1.72628465E-16
  0.411000013      -1.88390610E-16
  0.412000000      -1.97941568E-16
  0.412999988      -2.00485446E-16
  0.414000005      -1.95454838E-16
  0.414999992      -1.82546717E-16
  0.416000009      -1.61749663E-16
  0.416999996      -1.33360758E-16
  0.418000013      -9.79909719E-17
  0.419000000      -5.65582163E-17
  0.419999987      -1.02677665E-17
  0.421000004       3.94198215E-17
  0.421999991       9.08325773E-17
  0.423000008       1.42141605E-16
  0.423999995       1.91424443E-16
  0.425000012       2.36735174E-16
  0.425999999       2.76178772E-16
  0.426999986       3.07986950E-16
  0.428000003       3.30592301E-16
  0.428999990       3.42697990E-16
  0.430000007       3.43339749E-16
  0.430999994       3.31937548E-16
  0.432000011       3.08334313E-16
  0.432999998       2.72819704E-16
  0.433999985       2.26137283E-16
  0.435000002       1.69474405E-16
  0.435999990       1.04434219E-16
  0.437000006       3.29905602E-17
  0.437999994      -4.25732854E-17
  0.439000010      -1.19740005E-16
  0.439999998      -1.95845426E-16
  0.441000015      -2.68174125E-16
  0.442000002      -3.34060318E-16
  0.442999989      -3.90989773E-16
  0.444000006      -4.36699006E-16
  0.444999993      -4.69267688E-16
  0.446000010      -4.87200222E-16
  0.446999997      -4.89493035E-16
  0.448000014      -4.75684492E-16
  0.449000001      -4.45885237E-16
  0.449999988      -4.00786583E-16
  0.451000005      -3.41646981E-16
  0.451999992      -2.70255841E-16
  0.453000009      -1.88875920E-16
  0.453999996      -1.00166371E-16
  0.455000013      -7.08865578E-18
  0.456000000       8.72008243E-17
  0.456999987       1.79467488E-16
  0.458000004       2.66520187E-16
  0.458999991       3.45332686E-16
  0.460000008       4.13160384E-16
  0.460999995       4.67647102E-16
  0.462000012       5.06917720E-16
  0.463000000       5.29652561E-16
  0.463999987       5.35140487E-16
  0.465000004       5.23307754E-16
  0.465999991       4.94721981E-16
  0.467000008       4.50569859E-16
  0.467999995       3.92610359E-16
  0.469000012       3.23104265E-16
  0.469999999       2.44723224E-16
  0.470999986       1.60442056E-16
  0.472000003       7.34184534E-17
  0.472999990      -1.31347191E-17
  0.474000007      -9.60791921E-17
  0.474999994      -1.72477719E-16
  0.476000011      -2.39711727E-16
  0.476999998      -2.95584932E-16
  0.477999985      -3.38408985E-16
  0.479000002      -3.67066757E-16
  0.479999989      -3.81051006E-16
  0.481000006      -3.80476506E-16
  0.481999993      -3.66065193E-16
  0.483000010      -3.39105061E-16
  0.483999997      -3.01384540E-16
  0.485000014      -2.55105227E-16
  0.486000001      -2.02777279E-16
  0.486999989      -1.47101711E-16
  0.488000005      -9.08452034E-17
  0.488999993      -3.67130516E-17
  0.490000010       1.27739906E-17
  0.490999997       5.53934467E-17
  0.492000014       8.93201404E-17
  0.493000001       1.13206059E-16
  0.493999988       1.26237529E-16
  0.495000005       1.28166885E-16
  0.495999992       1.19317548E-16
  0.497000009       1.00562134E-16
  0.497999996       7.32748549E-17
  0.499000013       3.92604569E-17
  0.500000000       6.63156074E-19
  0.500999987      -4.01400311E-17
  0.501999974      -8.06565022E-17
  0.503000021      -1.18400184E-16
  0.504000008      -1.51012726E-16
  0.504999995      -1.76378015E-16
  0.505999982      -1.92724493E-16
  0.507000029      -1.98710515E-16
  0.508000016      -1.93488782E-16
  0.509000003      -1.76746580E-16
  0.509999990      -1.48720430E-16
  0.510999978      -1.10184349E-16
  0.512000024      -6.24124713E-17
  0.513000011      -7.11825809E-18
  0.513999999       5.36267114E-17
  0.514999986       1.17490220E-16
  0.515999973       1.81988046E-16
  0.517000020       2.44598392E-16
  0.518000007       3.02876271E-16
  0.518999994       3.54562327E-16
  0.519999981       3.97680328E-16
  0.521000028       4.30619215E-16
  0.522000015       4.52195050E-16
  0.523000002       4.61690713E-16
  0.523999989       4.58871152E-16
  0.524999976       4.43974384E-16
  0.526000023       4.17678987E-16
  0.527000010       3.81050318E-16
  0.527999997       3.35468828E-16
  0.528999984       2.82545204E-16
  0.529999971       2.24027059E-16
  0.531000018       1.61702825E-16
  0.532000005       9.73086736E-17
  0.532999992       3.24437607E-17
  0.533999979      -3.15010958E-17
  0.535000026      -9.33971483E-17
  0.536000013      -1.52410688E-16
  0.537000000      -2.08013332E-16
  0.537999988      -2.59969076E-16
  0.538999975      -3.08299161E-16
  0.540000021      -3.53226821E-16
  0.541000009      -3.95105850E-16
  0.541999996      -4.34337478E-16
  0.542999983      -4.71281456E-16
  0.544000030      -5.06167355E-16
  0.545000017      -5.39012910E-16
  0.546000004      -5.69555224E-16
  0.546999991      -5.97200897E-16
  0.547999978      -6.21000299E-16
  0.549000025      -6.39648894E-16
  0.550000012      -6.51518367E-16
  0.550999999      -6.54717928E-16
  0.551999986      -6.47184100E-16
  0.552999973      -6.26796069E-16
  0.554000020      -5.91511694E-16
  0.555000007      -5.39517371E-16
  0.555999994      -4.69383943E-16
  0.556999981      -3.80220093E-16
  0.558000028      -2.71813826E-16
  0.559000015      -1.44752610E-16
  0.560000002      -5.13569973E-19
  0.560999990       1.58484126E-16
  0.561999977       3.28871077E-16
  0.563000023       5.06368101E-16
  0.564000010       6.85877041E-16
  0.564999998       8.61622666E-16
  0.565999985       1.02734085E-15
  0.566999972       1.17650960E-15
  0.568000019       1.30261258E-15
  0.569000006       1.39942612E-15
  0.569999993       1.46131712E-15
  0.570999980       1.48353797E-15
  0.572000027       1.46250360E-15
  0.573000014       1.39603767E-15
  0.574000001       1.28357234E-15
  0.574999988       1.12629029E-15
  0.575999975       9.27198475E-16
  0.577000022       6.91124675E-16
  0.578000009       4.24633684E-16
  0.578999996       1.35860988E-16
  0.579999983      -1.65732862E-16
  0.580999970      -4.69680934E-16
  0.582000017      -7.64891186E-16
  0.583000004      -1.04007673E-15
  0.583999991      -1.28421810E-15
  0.584999979      -1.48703908E-15
  0.586000025      -1.63947494E-15
  0.587000012      -1.73411245E-15
  0.588000000      -1.76557972E-15
  0.588999987      -1.73086715E-15
  0.589999974      -1.62956190E-15
  0.591000021      -1.46398094E-15
  0.592000008      -1.23919194E-15
  0.592999995      -9.62917748E-16
  0.593999982      -6.45321209E-16
  0.595000029      -2.98675993E-16
  0.596000016       6.30673005E-17
  0.597000003       4.24805499E-16
  0.597999990       7.70878438E-16
  0.598999977       1.08571328E-15
  0.600000024       1.35449017E-15
  0.601000011       1.56380366E-15
  0.601999998       1.70228900E-15
  0.602999985       1.76118574E-15
  0.603999972       1.73481273E-15
  0.605000019       1.62093063E-15
  0.606000006       1.42097114E-15
  0.606999993       1.14012022E-15
  0.607999980       7.87245868E-16
  0.609000027       3.74667475E-16
  0.610000014      -8.22276093E-17
  0.611000001      -5.65510112E-16
  0.611999989      -1.05535964E-15
  0.612999976      -1.53081649E-15
  0.614000022      -1.97060796E-15
  0.615000010      -2.35401383E-15
  0.615999997      -2.66173942E-15
  0.616999984      -2.87675746E-15
  0.617999971      -2.98508577E-15
  0.619000018      -2.97646425E-15
  0.620000005      -2.84490097E-15
  0.620999992      -2.58906399E-15
  0.621999979      -2.21249453E-15
  0.623000026      -1.72363200E-15
  0.624000013      -1.13564354E-15
  0.625000000      -4.66059021E-16
  0.625999987       2.63775801E-16
  0.626999974       1.02941174E-15
  0.628000021       1.80414905E-15
  0.629000008       2.55999932E-15
  0.629999995       3.26872068E-15
  0.630999982       3.90288599E-15
  0.632000029       4.43694196E-15
  0.633000016       4.84822093E-15
  0.634000003       5.11785735E-15
  0.634999990       5.23157745E-15
  0.635999978       5.18032942E-15
  0.637000024       4.96072342E-15
  0.638000011       4.57526286E-15
  0.638999999       4.03235837E-15
  0.639999986       3.34611853E-15
  0.640999973       2.53592305E-15
  0.642000020       1.62579462E-15
  0.643000007       6.43590880E-16
  0.643999994      -3.79954443E-16
  0.644999981      -1.41230409E-15
  0.646000028      -2.42026493E-15
  0.647000015      -3.37116551E-15
  0.648000002      -4.23402039E-15
  0.648999989      -4.98063420E-15
  0.649999976      -5.58661046E-15
  0.651000023      -6.03221628E-15
  0.652000010      -6.30308133E-15
  0.652999997      -6.39069503E-15
  0.653999984      -6.29269332E-15
  0.654999971      -6.01291622E-15
  0.656000018      -5.56124267E-15
  0.657000005      -4.95320346E-15
  0.657999992      -4.20939334E-15
  0.658999979      -3.35470279E-15
  0.660000026      -2.41740111E-15
  0.661000013      -1.42810676E-15
  0.662000000      -4.18684151E-16
  0.662999988       5.78891380E-16
  0.663999975       1.53365596E-15
  0.665000021       2.41672688E-15
  0.666000009       3.20227857E-15
  0.666999996       3.86839142E-15
  0.667999983       4.39774170E-15
  0.669000030       4.77810947E-15
  0.670000017       5.00269263E-15
  0.671000004       5.07021132E-15
  0.671999991       4.98480880E-15
  0.672999978       4.75575500E-15
  0.674000025       4.39696666E-15
  0.675000012       3.92636659E-15
  0.675999999       3.36511028E-15
  0.676999986       2.73671157E-15
  0.677999973       2.06610352E-15
  0.679000020       1.37867074E-15
  0.680000007       6.99291661E-16
  0.680999994       5.14261959E-17
  0.681999981      -5.43715531E-16
  0.683000028      -1.06789562E-15
  0.684000015      -1.50643476E-15
  0.685000002      -1.84864496E-15
  0.685999990      -2.08809397E-15
  0.686999977      -2.22269704E-15
  0.688000023      -2.25463442E-15
  0.689000010      -2.19010364E-15
  0.689999998      -2.03892096E-15
  0.690999985      -1.81398840E-15
  0.691999972      -1.53065365E-15
  0.693000019      -1.20598793E-15
  0.694000006      -8.58015206E-16
  0.694999993      -5.04921263E-16
  0.695999980      -1.64276746E-16
  0.697000027       1.47695163E-16
  0.698000014       4.16778777E-16
  0.699000001       6.31327855E-16
  0.699999988       7.82708524E-16
  0.700999975       8.65607850E-16
  0.702000022       8.78196031E-16
  0.703000009       8.22139708E-16
  0.703999996       7.02466128E-16
  0.704999983       5.27286268E-16
  0.705999970       3.07389289E-16
  0.707000017       5.57254373E-17
  0.708000004      -2.13199278E-16
  0.708999991      -4.83993303E-16
  0.709999979      -7.41085378E-16
  0.711000025      -9.69438314E-16
  0.712000012      -1.15524007E-15
  0.713000000      -1.28654596E-15
  0.713999987      -1.35384410E-15
  0.714999974      -1.35052108E-15
  0.716000021      -1.27320942E-15
  0.717000008      -1.12200028E-15
  0.717999995      -9.00513761E-16
  0.718999982      -6.15821169E-16
  0.720000029      -2.78221603E-16
  0.721000016       9.91196698E-17
  0.722000003       5.00658146E-16
  0.722999990       9.09065193E-16
  0.723999977       1.30590796E-15
  0.725000024       1.67238842E-15
  0.726000011       1.99011365E-15
  0.726999998       2.24186688E-15
  0.727999985       2.41234814E-15
  0.728999972       2.48885576E-15
  0.730000019       2.46187945E-15
  0.731000006       2.32558211E-15
  0.731999993       2.07814642E-15
  0.732999980       1.72197351E-15
  0.734000027       1.26372022E-15
  0.735000014       7.14172494E-16
  0.736000001       8.79563380E-17
  0.736999989      -5.96905283E-16
  0.737999976      -1.31957526E-15
  0.739000022      -2.05710358E-15
  0.740000010      -2.78522327E-15
  0.740999997      -3.47920964E-15
  0.741999984      -4.11477171E-15
  0.742999971      -4.66894005E-15
  0.744000018      -5.12091725E-15
  0.745000005      -5.45285888E-15
  0.745999992      -5.65054705E-15
  0.746999979      -5.70393808E-15
  0.748000026      -5.60755208E-15
  0.749000013      -5.36069280E-15
  0.750000000      -4.96748486E-15
  0.750999987      -4.43672724E-15
  0.751999974      -3.78156462E-15
  0.753000021      -3.01898954E-15
  0.754000008      -2.16919569E-15
  0.754999995      -1.25480541E-15
  0.755999982      -3.00003823E-16
  0.757000029       6.70385708E-16
  0.758000016       1.63184540E-15
  0.759000003       2.56108818E-15
  0.759999990       3.43692343E-15
  0.760999978       4.24102663E-15
  0.762000024       4.95857915E-15
  0.763000011       5.57874873E-15
  0.763999999       6.09499074E-15
  0.764999986       6.50515247E-15
  0.765999973       6.81137818E-15
  0.767000020       7.01981181E-15
  0.768000007       7.14011674E-15
  0.768999994       7.18482653E-15
  0.769999981       7.16855164E-15
  0.771000028       7.10708585E-15
  0.772000015       7.01644655E-15
  0.773000002       6.91188711E-15
  0.773999989       6.80693718E-15
  0.774999976       6.71250868E-15
  0.776000023       6.63611012E-15
  0.777000010       6.58121180E-15
  0.777999997       6.54679049E-15
  0.778999984       6.52708216E-15
  0.779999971       6.51155435E-15
  0.781000018       6.48511083E-15
  0.782000005       6.42852140E-15
  0.782999992       6.31906018E-15
  0.783999979       6.13133862E-15
  0.785000026       5.83828513E-15
  0.786000013       5.41224873E-15
  0.787000000       4.82616461E-15
  0.787999988       4.05474291E-15
  0.788999975       3.07562089E-15
  0.790000021       1.87042917E-15
  0.791000009       4.25724689E-16
  0.791999996      -1.26625941E-15
  0.792999983      -3.20707659E-15
  0.794000030      -5.39177933E-15
  0.795000017      -7.80889246E-15
  0.796000004      -1.04406628E-14
  0.796999991      -1.32635720E-14
  0.797999978      -1.62491023E-14
  0.799000025      -1.93647266E-14
  0.800000012      -2.25750899E-14
  0.800999999      -2.58433293E-14
  0.801999986      -2.91324785E-14
  0.802999973      -3.24069181E-14
  0.804000020      -3.56337884E-14
  0.805000007      -3.87843308E-14
  0.805999994      -4.18350691E-14
  0.806999981      -4.47688219E-14
  0.808000028      -4.75754825E-14
  0.809000015      -5.02525166E-14
  0.810000002      -5.28051961E-14
  0.810999990      -5.52465280E-14
  0.811999977      -5.75968784E-14
  0.813000023      -5.98833523E-14
  0.814000010      -6.21388927E-14
  0.814999998      -6.44011821E-14
  0.815999985      -6.67113798E-14
  0.816999972      -6.91127250E-14
  0.818000019      -7.16491075E-14
  0.819000006      -7.43636381E-14
  0.819999993      -7.72972723E-14
  0.820999980      -8.04875508E-14
  0.822000027      -8.39675280E-14
  0.823000014      -8.77648919E-14
  0.824000001      -9.19013333E-14
  0.824999988      -9.63921597E-14
  0.825999975      -1.01246207E-13
  0.827000022      -1.06466011E-13
  0.828000009      -1.12048222E-13
  0.828999996      -1.17984236E-13
  0.829999983      -1.24261089E-13
  0.830999970      -1.30862376E-13
  0.832000017      -1.37769353E-13
  0.833000004      -1.44962100E-13
  0.833999991      -1.52420557E-13
  0.834999979      -1.60125656E-13
  0.836000025      -1.68060159E-13
  0.837000012      -1.76209497E-13
  0.838000000      -1.84562313E-13
  0.838999987      -1.93110854E-13
  0.839999974      -2.01851096E-13
  0.841000021      -2.10782645E-13
  0.842000008      -2.19908388E-13
  0.842999995      -2.29234058E-13
  0.843999982      -2.38767448E-13
  0.845000029      -2.48517678E-13
  0.846000016      -2.58494262E-13
  0.847000003      -2.68706173E-13
  0.847999990      -2.79160890E-13
  0.848999977      -2.89863673E-13
  0.850000024      -3.00816663E-13
  0.851000011      -3.12018505E-13
  0.851999998      -3.23463858E-13
  0.852999985      -3.35143209E-13
  0.853999972      -3.47043141E-13
  0.855000019      -3.59146523E-13
  0.856000006      -3.71433082E-13