   0.00000000       0.00000000    
   1.00000005E-03   0.00000000    
   2.00000009E-03   0.00000000    
   3.00000003E-03   0.00000000    
   4.00000019E-03   0.00000000    
   4.99999989E-03   0.00000000    
   6.00000005E-03   0.00000000    
   7.00000022E-03   0.00000000    
   8.00000038E-03   0.00000000    
   8.99999961E-03   0.00000000    
   9.99999978E-03   0.00000000    
   1.09999999E-02   0.00000000    
   1.20000001E-02   0.00000000    
   1.30000003E-02   0.00000000    
   1.40000004E-02   2.94698560E-38
   1.49999997E-02   1.43799724E-37
   1.60000008E-02   5.67388439E-37
   1.70000009E-02   1.98198345E-36
   1.79999992E-02   6.25878637E-36
   1.89999994E-02   1.80926259E-35
   1.99999996E-02   4.82848137E-35
   2.09999997E-02   1.19684059E-34
   2.19999999E-02   2.76840215E-34
   2.30000000E-02   5.99231893E-34
   2.40000002E-02   1.21477349E-33
   2.50000004E-02   2.30191622E-33
   2.60000005E-02   4.05116128E-33
   2.70000007E-02   6.52462180E-33
   2.80000009E-02   9.29567121E-33
   2.89999992E-02   1.06587517E-32
   2.99999993E-02   6.05836674E-33
   3.09999995E-02  -1.48179350E-32
   3.20000015E-02  -7.31161365E-32
   3.29999998E-02  -2.09250737E-31
   3.40000018E-02  -4.96303965E-31
   3.50000001E-02  -1.06043189E-30
   3.59999985E-02  -2.11068982E-30
   3.70000005E-02  -3.98084754E-30
   3.79999988E-02  -7.18548664E-30
   3.90000008E-02  -1.24916546E-29
   3.99999991E-02  -2.10051700E-29
   4.10000011E-02  -3.42668497E-29
   4.19999994E-02  -5.43478713E-29
   4.30000015E-02  -8.39247024E-29
   4.39999998E-02  -1.26301872E-28
   4.50000018E-02  -1.85335344E-28
   4.60000001E-02  -2.65190346E-28
   4.69999984E-02  -3.69845788E-28
   4.80000004E-02  -5.02235296E-28
   4.89999987E-02  -6.62894494E-28
   5.00000007E-02  -8.47970295E-28
   5.09999990E-02  -1.04644624E-27
   5.20000011E-02  -1.23645579E-27
   5.29999994E-02  -1.38060529E-27
   5.40000014E-02  -1.42031257E-27
   5.49999997E-02  -1.26930734E-27
   5.60000017E-02  -8.06636709E-28
   5.70000000E-02   1.30214531E-28
   5.79999983E-02   1.75114352E-27
   5.90000004E-02   4.31684216E-27
   5.99999987E-02   8.13800542E-27
   6.10000007E-02   1.35680594E-26
   6.19999990E-02   2.09866999E-26
   6.30000010E-02   3.07711466E-26
   6.40000030E-02   4.32518537E-26
   6.49999976E-02   5.86494664E-26
   6.59999996E-02   7.69903592E-26
   6.70000017E-02   9.79989823E-26
   6.80000037E-02   1.20966988E-25
   6.89999983E-02   1.44601372E-25
   7.00000003E-02   1.66857369E-25
   7.10000023E-02   1.84765608E-25
   7.19999969E-02   1.94268227E-25
   7.29999989E-02   1.90084195E-25
   7.40000010E-02   1.65629963E-25
   7.50000030E-02   1.13027744E-25
   7.59999976E-02   2.32387391E-26
   7.69999996E-02  -1.13637176E-25
   7.80000016E-02  -3.07852278E-25
   7.90000036E-02  -5.69251249E-25
   7.99999982E-02  -9.06225461E-25
   8.10000002E-02  -1.32435842E-24
   8.20000023E-02  -1.82475755E-24
   8.29999968E-02  -2.40209270E-24
   8.39999989E-02  -3.04239630E-24
   8.50000009E-02  -3.72071965E-24
   8.60000029E-02  -4.39878859E-24
   8.69999975E-02  -5.02285645E-24
   8.79999995E-02  -5.52199715E-24
   8.90000015E-02  -5.80714946E-24
   9.00000036E-02  -5.77125195E-24
   9.09999982E-02  -5.29085538E-24
   9.20000002E-02  -4.22960081E-24
   9.30000022E-02  -2.44393940E-24
   9.39999968E-02   2.08572506E-25
   9.49999988E-02   3.85817985E-24
   9.60000008E-02   8.60893767E-24
   9.70000029E-02   1.45219243E-23
   9.79999974E-02   2.15960202E-23
   9.89999995E-02   2.97468719E-23
  0.100000001       3.87850595E-23
  0.101000004       4.83947832E-23
  0.101999998       5.81148338E-23
  0.103000000       6.73239266E-23
  0.104000002       7.52327495E-23
  0.104999997       8.08854301E-23
  0.105999999       8.31730825E-23
  0.107000001       8.08621303E-23
  0.108000003       7.26397195E-23
  0.108999997       5.71780647E-23
  0.109999999       3.32187749E-23
  0.111000001      -3.22963204E-25
  0.112000003      -4.42358486E-23
  0.112999998      -9.88747404E-23
  0.114000000      -1.64012866E-22
  0.115000002      -2.38691034E-22
  0.115999997      -3.21073330E-22
  0.116999999      -4.08320160E-22
  0.118000001      -4.96492191E-22
  0.119000003      -5.80499238E-22
  0.119999997      -6.54109528E-22
  0.120999999      -7.10033784E-22
  0.122000001      -7.40098800E-22
  0.123000003      -7.35521135E-22
  0.123999998      -6.87289245E-22
  0.125000000      -5.86656796E-22
  0.126000002      -4.25743308E-22
  0.127000004      -1.98230093E-22
  0.128000006       9.98678721E-23
  0.128999993       4.69385163E-22
  0.129999995       9.07183377E-22
  0.130999997       1.40537289E-21
  0.131999999       1.95063688E-21
  0.133000001       2.52372219E-21
  0.134000003       3.09916808E-21
  0.135000005       3.64534174E-21
  0.136000007       4.12484720E-21
  0.136999995       4.49537080E-21
  0.137999997       4.71100361E-21
  0.138999999       4.72406887E-21
  0.140000001       4.48745967E-21
  0.141000003       3.95745379E-21
  0.142000005       3.09694139E-21
  0.143000007       1.87896823E-21
  0.143999994       2.90448639E-22
  0.144999996      -1.66413098E-21
  0.145999998      -3.95923619E-21
  0.147000000      -6.54528510E-21
  0.148000002      -9.34639533E-21
  0.149000004      -1.22591600E-20
  0.150000006      -1.51527291E-20
  0.150999993      -1.78704439E-20
  0.151999995      -2.02332578E-20
  0.152999997      -2.20450742E-20
  0.153999999      -2.31000881E-20
  0.155000001      -2.31920974E-20
  0.156000003      -2.21256403E-20
  0.157000005      -1.97286631E-20
  0.158000007      -1.58663226E-20
  0.158999994      -1.04553351E-20
  0.159999996      -3.47819956E-21
  0.160999998       5.00354929E-21
  0.162000000       1.48379367E-20
  0.163000003       2.57739915E-20
  0.164000005       3.74569967E-20
  0.165000007       4.94285168E-20
  0.165999994       6.11320206E-20
  0.166999996       7.19247824E-20
  0.167999998       8.10965481E-20
  0.169000000       8.78950681E-20
  0.170000002       9.15583408E-20
  0.171000004       9.13529027E-20
  0.172000006       8.66172162E-20
  0.172999993       7.68085602E-20
  0.173999995       6.15515821E-20
  0.174999997       4.06861127E-20
  0.175999999       1.43115849E-20
  0.177000001      -1.71749029E-20
  0.178000003      -5.30499523E-20
  0.179000005      -9.22476601E-20
  0.180000007      -1.33358795E-19
  0.180999994      -1.74647826E-19
  0.181999996      -2.14089645E-19
  0.182999998      -2.49427396E-19
  0.184000000      -2.78251331E-19
  0.185000002      -2.98098186E-19
  0.186000004      -3.06568645E-19
  0.187000006      -3.01459951E-19
  0.187999994      -2.80908571E-19
  0.188999996      -2.43537379E-19
  0.189999998      -1.88600126E-19
  0.191000000      -1.16115401E-19
  0.192000002      -2.69814457E-20
  0.193000004       7.69368313E-20
  0.194000006       1.92757407E-19
  0.194999993       3.16575023E-19
  0.195999995       4.43506327E-19
  0.196999997       5.67791248E-19
  0.197999999       6.82953556E-19
  0.199000001       7.82020997E-19
  0.200000003       8.57801753E-19
  0.201000005       9.03211332E-19
  0.202000007       9.11640820E-19
  0.202999994       8.77352736E-19
  0.203999996       7.95888215E-19
  0.204999998       6.64467879E-19
  0.206000000       4.82363602E-19
  0.207000002       2.51219302E-19
  0.208000004      -2.47021641E-20
  0.209000006      -3.38368569E-19
  0.209999993      -6.79944531E-19
  0.210999995      -1.03689178E-18
  0.211999997      -1.39421582E-18
  0.213000000      -1.73486637E-18
  0.214000002      -2.04029061E-18
  0.215000004      -2.29113417E-18
  0.216000006      -2.46806996E-18
  0.216999993      -2.55273500E-18
  0.217999995      -2.52874035E-18
  0.218999997      -2.38271299E-18
  0.219999999      -2.10532562E-18
  0.221000001      -1.69225933E-18
  0.222000003      -1.14504751E-18
  0.223000005      -4.71741724E-19
  0.224000007       3.12651240E-19
  0.224999994       1.18601229E-18
  0.225999996       2.11927250E-18
  0.226999998       3.07692618E-18
  0.228000000       4.01791113E-18
  0.229000002       4.89685711E-18
  0.230000004       5.66568675E-18
  0.231000006       6.27553145E-18
  0.231999993       6.67890938E-18
  0.232999995       6.83209165E-18
  0.233999997       6.69756396E-18
  0.234999999       6.24648087E-18
  0.236000001       5.46099595E-18
  0.237000003       4.33634216E-18
  0.238000005       2.88253956E-18
  0.238999993       1.12561094E-18
  0.239999995      -8.91810198E-19
  0.240999997      -3.11056575E-18
  0.241999999      -5.45582855E-18
  0.243000001      -7.83876632E-18
  0.244000003      -1.01590245E-17
  0.245000005      -1.23079917E-17
  0.246000007      -1.41727885E-17
  0.246999994      -1.56408621E-17
  0.247999996      -1.66050403E-17
  0.248999998      -1.69688641E-17
  0.250000000      -1.66519696E-17
  0.250999987      -1.55953010E-17
  0.252000004      -1.37658769E-17
  0.252999991      -1.11608726E-17
  0.254000008      -7.81074310E-18
  0.254999995      -3.78118775E-18
  0.256000012       8.26279606E-19
  0.256999999       5.87528108E-18
  0.257999986       1.11971610E-17
  0.259000003       1.65952382E-17
  0.259999990       2.18506873E-17
  0.261000007       2.67299246E-17
  0.261999995       3.09933293E-17
  0.263000011       3.44049960E-17
  0.263999999       3.67432238E-17
  0.264999986       3.78112728E-17
  0.266000003       3.74480214E-17
  0.266999990       3.55379919E-17
  0.268000007       3.20202244E-17
  0.268999994       2.68956205E-17
  0.270000011       2.02321760E-17
  0.270999998       1.21677954E-17
  0.272000015       2.91032993E-18
  0.273000002      -7.26537713E-18
  0.273999989      -1.80235509E-17
  0.275000006      -2.89766365E-17
  0.275999993      -3.96973704E-17
  0.277000010      -4.97335064E-17
  0.277999997      -5.86247318E-17
  0.279000014      -6.59212126E-17
  0.280000001      -7.12031645E-17
  0.280999988      -7.41005598E-17
  0.282000005      -7.43122717E-17
  0.282999992      -7.16236833E-17
  0.284000009      -6.59219935E-17
  0.284999996      -5.72083406E-17
  0.286000013      -4.56060671E-17
  0.287000000      -3.13644290E-17
  0.287999988      -1.48573798E-17
  0.289000005       3.42295899E-18
  0.289999992       2.28781382E-17
  0.291000009       4.28204404E-17
  0.291999996       6.24947658E-17
  0.293000013       8.11047216E-17
  0.294000000       9.78421786E-17
  0.294999987       1.11919178E-16
  0.296000004       1.22601111E-16
  0.296999991       1.29239811E-16
  0.298000008       1.31305195E-16
  0.298999995       1.28414165E-16
  0.300000012       1.20355229E-16
  0.300999999       1.07107733E-16
  0.301999986       8.88546363E-17
  0.303000003       6.59877444E-17
  0.303999990       3.91049502E-17
  0.305000007       8.99904595E-18
  0.305999994      -2.33618751E-17
  0.307000011      -5.68621225E-17
  0.307999998      -9.02735488E-17
  0.308999985      -1.22297079E-16
  0.310000002      -1.51609355E-16
  0.310999990      -1.76912969E-16
  0.312000006      -1.96988272E-16
  0.312999994      -2.10745119E-16
  0.314000010      -2.17272210E-16
  0.314999998      -2.15882162E-16
  0.316000015      -2.06150296E-16
  0.317000002      -1.87945348E-16
  0.317999989      -1.61450435E-16
  0.319000006      -1.27173222E-16
  0.319999993      -8.59441252E-17
  0.321000010      -3.89023274E-17
  0.321999997       1.25306348E-17
  0.323000014       6.66891142E-17
  0.324000001       1.21712613E-16
  0.324999988       1.75604634E-16
  0.326000005       2.26299410E-16
  0.326999992       2.71734337E-16
  0.328000009       3.09925729E-16
  0.328999996       3.39045187E-16
  0.330000013       3.57493988E-16
  0.331000000       3.63972413E-16
  0.331999987       3.57541766E-16
  0.333000004       3.37676090E-16
  0.333999991       3.04301668E-16
  0.335000008       2.57822271E-16
  0.335999995       1.99128751E-16
  0.337000012       1.29591938E-16
  0.338000000       5.10386055E-17
  0.338999987      -3.42896209E-17
  0.340000004      -1.23793376E-16
  0.340999991      -2.14587552E-16
  0.342000008      -3.03586402E-16
  0.342999995      -3.87599180E-16
  0.344000012      -4.63433748E-16
  0.344999999      -5.28004976E-16
  0.345999986      -5.78444517E-16
  0.347000003      -6.12208309E-16
  0.347999990      -6.27178558E-16
  0.349000007      -6.21756276E-16
  0.349999994      -5.94940854E-16
  0.351000011      -5.46394167E-16
  0.351999998      -4.76485944E-16
  0.352999985      -3.86317989E-16
  0.354000002      -2.77726169E-16
  0.354999989      -1.53258211E-16
  0.356000006      -1.61275536E-17
  0.356999993       1.29856914E-16
  0.358000010       2.80383920E-16
  0.358999997       4.30754105E-16
  0.360000014       5.76013003E-16
  0.361000001       7.11099512E-16
  0.361999989       8.31005390E-16
  0.363000005       9.30942890E-16
  0.363999993       1.00651348E-15
  0.365000010       1.05387416E-15
  0.365999997       1.06989526E-15
  0.367000014       1.05230344E-15
  0.368000001       9.99805186E-16
  0.368999988       9.12185663E-16
  0.370000005       7.90377349E-16
  0.370999992       6.36495073E-16
  0.372000009       4.53833477E-16
  0.372999996       2.46825030E-16
  0.374000013       2.09572263E-17
  0.375000000      -2.17351089E-16
  0.375999987      -4.60912555E-16
  0.377000004      -7.01970455E-16
  0.377999991      -9.32429962E-16
  0.379000008      -1.14411525E-15
  0.379999995      -1.32904573E-15
  0.381000012      -1.47972241E-15
  0.381999999      -1.58941582E-15
  0.382999986      -1.65244428E-15
  0.384000003      -1.66443287E-15
  0.384999990      -1.62254148E-15
  0.386000007      -1.52565245E-15
  0.386999995      -1.37450768E-15
  0.388000011      -1.17178665E-15
  0.388999999      -9.22118712E-16
  0.389999986      -6.32024751E-16
  0.391000003      -3.09785466E-16
  0.391999990       3.47636152E-17
  0.393000007       3.90507441E-16
  0.393999994       7.45391164E-16
  0.395000011       1.08681622E-15
  0.395999998       1.40207934E-15
  0.397000015       1.67884355E-15
  0.398000002       1.90562106E-15
  0.398999989       2.07225319E-15
  0.400000006       2.17036671E-15
  0.400999993       2.19378632E-15
  0.402000010       2.13888758E-15
  0.402999997       2.00486748E-15
  0.404000014       1.79392134E-15
  0.405000001       1.51131060E-15
  0.405999988       1.16531214E-15
  0.407000005       7.67045508E-16
  0.407999992       3.30175322E-16
  0.409000009      -1.29504442E-16
  0.409999996      -5.94595688E-16
  0.411000013      -1.04671567E-15
  0.412000000      -1.46719098E-15
  0.412999988      -1.83780103E-15
  0.414000005      -2.14154514E-15
  0.414999992      -2.36340044E-15
  0.416000009      -2.49104025E-15
  0.416999996      -2.51548012E-15
  0.418000013      -2.43162089E-15
  0.419000000      -2.23865895E-15
  0.419999987      -1.94034051E-15
  0.421000004      -1.54503934E-15
  0.421999991      -1.06564453E-15
  0.423000008      -5.19253325E-16
  0.423999995       7.33297797E-17
  0.425000012       6.88277215E-16
  0.425999999       1.29958687E-15
  0.426999986       1.88006798E-15
  0.428000003       2.40243087E-15
  0.428999990       2.84043901E-15
  0.430000007       3.17007967E-15
  0.430999994       3.37070155E-15
  0.432000011       3.42607357E-15
  0.432999998       3.32531117E-15
  0.433999985       3.06362690E-15
  0.435000002       2.64286371E-15
  0.435999990       2.07177504E-15
  0.437000006       1.36602856E-15
  0.437999994       5.47918773E-16
  0.439000010      -3.54216050E-16
  0.439999998      -1.30686088E-15
  0.441000015      -2.27245408E-15
  0.442000002      -3.21074573E-15
  0.442999989      -4.08033770E-15
  0.444000006      -4.84035284E-15
  0.444999993      -5.45216262E-15
  0.446000010      -5.88110942E-15
  0.446999997      -6.09815060E-15
  0.448000014      -6.08134716E-15
  0.449000001      -5.81713133E-15
  0.449999988      -5.30128699E-15
  0.451000005      -4.53959304E-15
  0.451999992      -3.54808168E-15
  0.453000009      -2.35288643E-15
  0.453999996      -9.89670119E-16
  0.455000013       4.97366629E-16
  0.456000000       2.05686916E-15
  0.456999987       3.63206669E-15
  0.458000004       5.16280600E-15
  0.458999991       6.58781103E-15
  0.460000008       7.84708009E-15
  0.460999995       8.88433631E-15
  0.462000012       9.64942051E-15
  0.463000000       1.01005350E-14
  0.463999987       1.02062405E-14
  0.465000004       9.94711024E-15
  0.465999991       9.31696601E-15
  0.467000008       8.32362506E-15
  0.467999995       6.98911999E-15
  0.469000012       5.34935653E-15
  0.469999999       3.45320213E-15
  0.470999986       1.36103477E-15
  0.472000003      -8.57216189E-16
  0.472999990      -3.12447013E-15
  0.474000007      -5.35925327E-15
  0.474999994      -7.47871308E-15
  0.476000011      -9.40177857E-15
  0.476999998      -1.10523349E-14
  0.477999985      -1.23622976E-14
  0.479000002      -1.32744496E-14
  0.479999989      -1.37449256E-14
  0.481000006      -1.37452390E-14
  0.481999993      -1.32637516E-14
  0.483000010      -1.23065188E-14
  0.483999997      -1.08974702E-14
  0.485000014      -9.07788672E-15
  0.486000001      -6.90519851E-15
  0.486999989      -4.45112595E-15
  0.488000005      -1.79923223E-15
  0.488999993       9.58030580E-16
  0.490000010       3.72266999E-15
  0.490999997       6.39477264E-15
  0.492000014       8.87625392E-15
  0.493000001       1.10745966E-14
  0.493999988       1.29064223E-14
  0.495000005       1.43007554E-14
  0.495999992       1.52018612E-14
  0.497000009       1.55715183E-14
  0.497999996       1.53906462E-14
  0.499000013       1.46602192E-14
  0.500000000       1.34014190E-14
  0.500999987       1.16550090E-14
  0.501999974       9.47996479E-15
  0.503000021       6.95140035E-15
  0.504000008       4.15787002E-15
  0.504999995       1.19814536E-15
  0.505999982      -1.82240346E-15
  0.507000029      -4.79568498E-15
  0.508000016      -7.61487278E-15
  0.509000003      -1.01783468E-14
  0.509999990      -1.23934371E-14
  0.510999978      -1.41798254E-14
  0.512000024      -1.54724781E-14
  0.513000011      -1.62239996E-14
  0.513999999      -1.64063116E-14
  0.514999986      -1.60116180E-14
  0.515999973      -1.50526039E-14
  0.517000020      -1.35618742E-14
  0.518000007      -1.15906786E-14
  0.518999994      -9.20694913E-15
  0.519999981      -6.49275996E-15
  0.521000028      -3.54129970E-15
  0.522000015      -4.53480211E-16
  0.523000002       2.66568299E-15
  0.523999989       5.71078168E-15
  0.524999976       8.57967804E-15
  0.526000023       1.11769834E-14
  0.527000010       1.34172348E-14
  0.527999997       1.52276517E-14
  0.528999984       1.65503936E-14
  0.529999971       1.73442413E-14
  0.531000018       1.75856711E-14
  0.532000005       1.72692840E-14
  0.532999992       1.64076279E-14
  0.533999979       1.50303997E-14
  0.535000026       1.31831175E-14
  0.536000013       1.09253071E-14
  0.537000000       8.32829729E-15
  0.537999988       5.47270740E-15
  0.538999975       2.44573924E-15
  0.540000021      -6.61639776E-16
  0.541000009      -3.75751396E-15
  0.541999996      -6.75175129E-15
  0.542999983      -9.55856522E-15
  0.544000030      -1.20988374E-14
  0.545000017      -1.43021462E-14
  0.546000004      -1.61084609E-14
  0.546999991      -1.74694667E-14
  0.547999978      -1.83495288E-14
  0.549000025      -1.87262705E-14
  0.550000012      -1.85908079E-14
  0.550999999      -1.79476371E-14
  0.551999986      -1.68142274E-14
  0.552999973      -1.52203350E-14
  0.554000020      -1.32070902E-14
  0.555000007      -1.08258807E-14
  0.555999994      -8.13707452E-15
  0.556999981      -5.20860634E-15
  0.558000028      -2.11446317E-15
  0.559000015       1.06691878E-15
  0.560000002       4.25431700E-15
  0.560999990       7.36543767E-15
  0.561999977       1.03186629E-14
  0.563000023       1.30348240E-14
  0.564000010       1.54389796E-14
  0.564999998       1.74621788E-14
  0.565999985       1.90432031E-14
  0.566999972       2.01302377E-14
  0.568000019       2.06824558E-14
  0.569000006       2.06714681E-14
  0.569999993       2.00825938E-14
  0.570999980       1.89158940E-14
  0.572000027       1.71869355E-14
  0.573000014       1.49271989E-14
  0.574000001       1.21841158E-14
  0.574999988       9.02065355E-15
  0.575999975       5.51444198E-15
  0.577000022       1.75639217E-15
  0.578000009      -2.15118035E-15
  0.578999996      -6.09693003E-15
  0.579999983      -9.96331652E-15
  0.580999970      -1.36298503E-14
  0.582000017      -1.69766731E-14
  0.583000004      -1.98883743E-14
  0.583999991      -2.22579303E-14
  0.584999979      -2.39906311E-14
  0.586000025      -2.50078600E-14
  0.587000012      -2.52505570E-14
  0.588000000      -2.46822436E-14
  0.588999987      -2.32914392E-14
  0.589999974      -2.10933413E-14
  0.591000021      -1.81306742E-14
  0.592000008      -1.44735993E-14
  0.592999995      -1.02186360E-14
  0.593999982      -5.48659027E-15
  0.595000029      -4.19478509E-16
  0.596000016       4.82346469E-15
  0.597000003       1.00706110E-14
  0.597999990       1.51434465E-14
  0.598999977       1.98626007E-14
  0.600000024       2.40541822E-14
  0.601000011       2.75561942E-14
  0.601999998       3.02248020E-14
  0.602999985       3.19401928E-14
  0.603999972       3.26117781E-14
  0.605000019       3.21825459E-14
  0.606000006       3.06323163E-14
  0.606999993       2.79797768E-14
  0.607999980       2.42831302E-14
  0.609000027       1.96393110E-14
  0.610000014       1.41817363E-14
  0.611000001       8.07662178E-15
  0.611999989       1.51796997E-15
  0.612999976      -5.27863691E-15
  0.614000022      -1.20832265E-14
  0.615000010      -1.86593667E-14
  0.615999997      -2.47725627E-14
  0.616999984      -3.01987981E-14
  0.617999971      -3.47329113E-14
  0.619000018      -3.81964832E-14
  0.620000005      -4.04449050E-14
  0.620999992      -4.13733684E-14
  0.621999979      -4.09215068E-14
  0.623000026      -3.90764725E-14
  0.624000013      -3.58743322E-14
  0.625000000      -3.13996638E-14
  0.625999987      -2.57833526E-14
  0.626999974      -1.91986421E-14
  0.628000021      -1.18555424E-14
  0.629000008      -3.99380905E-15
  0.629999995       4.12529313E-15
  0.630999982       1.22281242E-14
  0.632000029       2.00383719E-14
  0.633000016       2.72869834E-14
  0.634000003       3.37219131E-14
  0.634999990       3.91173639E-14
  0.635999978       4.32821368E-14
  0.637000024       4.60667745E-14
  0.638000011       4.73692266E-14
  0.638999999       4.71388099E-14
  0.639999986       4.53782926E-14
  0.640999973       4.21440328E-14
  0.642000020       3.75441391E-14
  0.643000007       3.17347297E-14
  0.643999994       2.49143916E-14
  0.644999981       1.73170973E-14
  0.646000028       9.20377530E-15
  0.647000015       8.52892721E-16
  0.648000002      -7.44961242E-15
  0.648999989      -1.54206803E-14
  0.649999976      -2.27903701E-14
  0.651000023      -2.93115921E-14
  0.652000010      -3.47690084E-14
  0.652999997      -3.89867277E-14
  0.653999984      -4.18345507E-14
  0.654999971      -4.32325040E-14
  0.656000018      -4.31535097E-14
  0.657000005      -4.16241037E-14
  0.657999992      -3.87231920E-14
  0.658999979      -3.45788563E-14
  0.660000026      -2.93633898E-14
  0.661000013      -2.32867128E-14
  0.662000000      -1.65884406E-14
  0.662999988      -9.52889365E-15
  0.663999975      -2.37939051E-15
  0.665000021       4.58781377E-15
  0.666000009       1.11095808E-14
  0.666999996       1.69415534E-14
  0.667999983       2.18670907E-14
  0.669000030       2.57051409E-14
  0.670000017       2.83167773E-14
  0.671000004       2.96101678E-14
  0.671999991       2.95438045E-14
  0.672999978       2.81278754E-14
  0.674000025       2.54237685E-14
  0.675000012       2.15417063E-14
  0.675999999       1.66366317E-14
  0.676999986       1.09024812E-14
  0.677999973       4.56508449E-15
  0.679000020      -2.12606794E-15
  0.680000007      -8.90687247E-15
  0.680999994      -1.55081602E-14
  0.681999981      -2.16653884E-14
  0.683000028      -2.71281546E-14
  0.684000015      -3.16691694E-14
  0.685000002      -3.50923920E-14
  0.685999990      -3.72400542E-14
  0.686999977      -3.79982978E-14
  0.688000023      -3.73012913E-14
  0.689000010      -3.51336256E-14
  0.689999998      -3.15309709E-14
  0.690999985      -2.65789520E-14
  0.691999972      -2.04102889E-14
  0.693000019      -1.32003215E-14
  0.694000006      -5.16108186E-15
  0.694999993       3.46588560E-15
  0.695999980       1.24176953E-14
  0.697000027       2.14189967E-14
  0.698000014       3.01912527E-14
  0.699000001       3.84620890E-14
  0.699999988       4.59744242E-14
  0.700999975       5.24950228E-14
  0.702000022       5.78222298E-14
  0.703000009       6.17925985E-14
  0.703999996       6.42862093E-14
  0.704999983       6.52304545E-14
  0.705999970       6.46022678E-14
  0.707000017       6.24286389E-14
  0.708000004       5.87854215E-14
  0.708999991       5.37945204E-14
  0.709999979       4.76195282E-14
  0.711000025       4.04599721E-14
  0.712000012       3.25443780E-14
  0.713000000       2.41223955E-14
  0.713999987       1.54562388E-14
  0.714999974       6.81175765E-15
  0.716000021      -1.55057830E-15
  0.717000008      -9.38446013E-15
  0.717999995      -1.64659986E-14
  0.718999982      -2.26011887E-14
  0.720000029      -2.76323205E-14
  0.721000016      -3.14431471E-14
  0.722000003      -3.39626263E-14
  0.722999990      -3.51671478E-14
  0.723999977      -3.50811434E-14
  0.725000024      -3.37761164E-14
  0.726000011      -3.13681305E-14
  0.726999998      -2.80138546E-14
  0.727999985      -2.39052925E-14
  0.728999972      -1.92634520E-14
  0.730000019      -1.43311300E-14
  0.731000006      -9.36510289E-15
  0.731999993      -4.62797542E-15
  0.732999980      -3.79993512E-16
  0.734000027       3.12891133E-15
  0.735000014       5.66657927E-15
  0.736000001       7.02532557E-15
  0.736999989       7.02768752E-15
  0.737999976       5.53103282E-15
  0.739000022       2.43089837E-15
  0.740000010      -2.33701769E-15
  0.740999997      -8.79625335E-15
  0.741999984      -1.69303438E-14
  0.742999971      -2.66848751E-14
  0.744000018      -3.79707320E-14
  0.745000005      -5.06683759E-14
  0.745999992      -6.46329778E-14
  0.746999979      -7.97001557E-14
  0.748000026      -9.56921649E-14
  0.749000013      -1.12424250E-13
  0.750000000      -1.29710912E-13
  0.750999987      -1.47371929E-13
  0.751999974      -1.65237873E-13
  0.753000021      -1.83154991E-13
  0.754000008      -2.00989277E-13
  0.754999995      -2.18629598E-13
  0.755999982      -2.35989939E-13
  0.757000029      -2.53010612E-13
  0.758000016      -2.69658346E-13
  0.759000003      -2.85925689E-13
  0.759999990      -3.01829444E-13
  0.760999978      -3.17408318E-13
  0.762000024      -3.32720044E-13
  0.763000011      -3.47838078E-13
  0.763999999      -3.62847908E-13
  0.764999986      -3.77843373E-13
  0.765999973      -3.92922945E-13
  0.767000020      -4.08186072E-13
  0.768000007      -4.23729899E-13
  0.768999994      -4.39646366E-13
  0.769999981      -4.56019825E-13
  0.771000028      -4.72924813E-13
  0.772000015      -4.90424812E-13
  0.773000002      -5.08571104E-13
  0.773999989      -5.27402449E-13
  0.774999976      -5.46944814E-13
  0.776000023      -5.67211805E-13
  0.777000010      -5.88204995E-13
  0.777999997      -6.09915005E-13
  0.778999984      -6.32322157E-13
  0.779999971      -6.55397611E-13
  0.781000018      -6.79104288E-13
  0.782000005      -7.03397952E-13
  0.782999992      -7.28227916E-13
  0.783999979      -7.53538074E-13
  0.785000026      -7.79267601E-13
  0.786000013      -8.05351662E-13
  0.787000000      -8.31722278E-13
  0.787999988      -8.58308975E-13
  0.788999975      -8.85039654E-13
  0.790000021      -9.11841566E-13
  0.791000009      -9.38642501E-13
  0.791999996      -9.65372096E-13
  0.792999983      -9.91963347E-13
  0.794000030      -1.01835445E-12
  0.795000017      -1.04449088E-12
  0.796000004      -1.07032710E-12
  0.796999991      -1.09582916E-12
  0.797999978      -1.12097690E-12
  0.799000025      -1.14576577E-12
  0.800000012      -1.17020900E-12
  0.800999999      -1.19433912E-12
  0.801999986      -1.21820934E-12
  0.802999973      -1.24189385E-12
  0.804000020      -1.26548793E-12
  0.805000007      -1.28910749E-12
  0.805999994      -1.31288708E-12
  0.806999981      -1.33697784E-12
  0.808000028      -1.36154456E-12
  0.809000015      -1.38676137E-12
  0.810000002      -1.41280759E-12
  0.810999990      -1.43986244E-12
  0.811999977      -1.46809995E-12
  0.813000023      -1.49768273E-12
  0.814000010      -1.52875705E-12
  0.814999998      -1.56144672E-12
  0.815999985      -1.59584856E-12
  0.816999972      -1.63202785E-12
  0.818000019      -1.67001525E-12
  0.819000006      -1.70980385E-12
  0.819999993      -1.75134842E-12
  0.820999980      -1.79456515E-12
  0.822000027      -1.83933381E-12
  0.823000014      -1.88549979E-12
  0.824000001      -1.93287942E-12
  0.824999988      -1.98126389E-12
  0.825999975      -2.03042726E-12
  0.827000022      -2.08013337E-12
  0.828000009      -2.13014372E-12
  0.828999996      -2.18022605E-12
  0.829999983      -2.23016332E-12
  0.830999970      -2.27976145E-12
  0.832000017      -2.32885738E-12
  0.833000004      -2.37732620E-12
  0.833999991      -2.42508639E-12
  0.834999979      -2.47210520E-12
  0.836000025      -2.51840107E-12
  0.837000012      -2.56404511E-12
  0.838000000      -2.60916050E-12
  0.838999987      -2.65392049E-12
  0.839999974      -2.69854430E-12
  0.841000021      -2.74329236E-12
  0.842000008      -2.78845805E-12
  0.842999995      -2.83436100E-12
  0.843999982      -2.88133666E-12
  0.845000029      -2.92972807E-12
  0.846000016      -2.97987503E-12
  0.847000003      -3.03210386E-12
  0.847999990      -3.08671881E-12
  0.848999977      -3.14399266E-12
  0.850000024      -3.20415894E-12
  0.851000011      -3.26740566E-12
  0.851999998      -3.33386942E-12
  0.852999985      -3.40363306E-12
  0.853999972      -3.47672368E-12
  0.855000019      -3.55311180E-12
  0.856000006      -3.63271436E-12