   0.00000000       0.00000000    
   1.00000005E-03   0.00000000    
   2.00000009E-03   0.00000000    
   3.00000003E-03   0.00000000    
   4.00000019E-03   0.00000000    
   4.99999989E-03   0.00000000    
   6.00000005E-03   0.00000000    
   7.00000022E-03   0.00000000    
   8.00000038E-03   0.00000000    
   8.99999961E-03   0.00000000    
   9.99999978E-03   0.00000000    
   1.09999999E-02   0.00000000    
   1.20000001E-02   0.00000000    
   1.30000003E-02   0.00000000    
   1.40000004E-02   0.00000000    
   1.49999997E-02   0.00000000    
   1.60000008E-02   0.00000000    
   1.70000009E-02   0.00000000    
   1.79999992E-02   0.00000000    
   1.89999994E-02   0.00000000    
   1.99999996E-02   0.00000000    
   2.09999997E-02  -1.20346357E-38
   2.19999999E-02  -3.80629265E-38
   2.30000000E-02  -1.18558998E-37
   2.40000002E-02  -2.79750113E-37
   2.50000004E-02  -5.74042880E-37
   2.60000005E-02  -1.07143792E-36
   2.70000007E-02  -1.86073495E-36
   2.80000009E-02  -3.02086838E-36
   2.89999992E-02  -4.57090806E-36
   2.99999993E-02  -6.35480683E-36
   3.09999995E-02  -7.84428675E-36
   3.20000015E-02  -7.80801747E-36
   3.29999998E-02  -3.82508760E-36
   3.40000018E-02   8.38368397E-36
   3.50000001E-02   3.58473000E-35
   3.59999985E-02   8.93195479E-35
   3.70000005E-02   1.84354983E-34
   3.79999988E-02   3.42203395E-34
   3.90000008E-02   5.89956692E-34
   3.99999991E-02   9.59257757E-34
   4.10000011E-02   1.48317917E-33
   4.19999994E-02   2.19041434E-33
   4.30000015E-02   3.09577090E-33
   4.39999998E-02   4.18654627E-33
   4.50000018E-02   5.40479041E-33
   4.60000001E-02   6.62666573E-33
   4.69999984E-02   7.64174257E-33
   4.80000004E-02   8.13745221E-33
   4.89999987E-02   7.69700697E-33
   5.00000007E-02   5.82242886E-33
   5.09999990E-02   1.99811558E-33
   5.20000011E-02  -4.18649117E-33
   5.29999994E-02  -1.28346806E-32
   5.40000014E-02  -2.34409913E-32
   5.49999997E-02  -3.44755301E-32
   5.60000017E-02  -4.28496637E-32
   5.70000000E-02  -4.32766356E-32
   5.79999983E-02  -2.75675701E-32
   5.90000004E-02   1.60598992E-32
   5.99999987E-02   1.03536673E-31
   6.10000007E-02   2.55182661E-31
   6.19999990E-02   4.95395637E-31
   6.30000010E-02   8.51495194E-31
   6.40000030E-02   1.35138348E-30
   6.49999976E-02   2.01966274E-30
   6.59999996E-02   2.87187075E-30
   6.70000017E-02   3.90656721E-30
   6.80000037E-02   5.09516089E-30
   6.89999983E-02   6.36960704E-30
   7.00000003E-02   7.60845772E-30
   7.10000023E-02   8.62221006E-30
   7.19999969E-02   9.13947046E-30
   7.29999989E-02   8.79609671E-30
   7.40000010E-02   7.13019213E-30
   7.50000030E-02   3.58649608E-30
   7.59999976E-02  -2.46572052E-30
   7.69999996E-02  -1.16967932E-29
   7.80000016E-02  -2.47584087E-29
   7.90000036E-02  -4.21990781E-29
   7.99999982E-02  -6.43506338E-29
   8.10000002E-02  -9.11851454E-29
   8.20000023E-02  -1.22144596E-28
   8.29999968E-02  -1.55949529E-28
   8.39999989E-02  -1.90398144E-28
   8.50000009E-02  -2.22172486E-28
   8.60000029E-02  -2.46675491E-28
   8.69999975E-02  -2.57928290E-28
   8.79999995E-02  -2.48563600E-28
   8.90000015E-02  -2.09955662E-28
   9.00000036E-02  -1.32529294E-28
   9.09999982E-02  -6.29001046E-30
   9.20000002E-02   1.78388286E-28
   9.30000022E-02   4.29692208E-28
   9.39999968E-02   7.53005434E-28
   9.49999988E-02   1.14926903E-27
   9.60000008E-02   1.61311203E-27
   9.70000029E-02   2.13083676E-27
   9.79999974E-02   2.67838885E-27
   9.89999995E-02   3.21948541E-27
  0.100000001       3.70412720E-27
  0.101000004       4.06775895E-27
  0.101999998       4.23138056E-27
  0.103000000       4.10292912E-27
  0.104000002       3.58025562E-27
  0.104999997       2.55598444E-27
  0.105999999       9.24487973E-28
  0.107000001      -1.40889758E-27
  0.108000003      -4.51642590E-27
  0.108999997      -8.43446536E-27
  0.109999999      -1.31484239E-26
  0.111000001      -1.85767437E-26
  0.112000003      -2.45549551E-26
  0.112999998      -3.08210144E-26
  0.114000000      -3.70034806E-26
  0.115000002      -4.26142507E-26
  0.115999997      -4.70477938E-26
  0.116999999      -4.95888781E-26
  0.118000001      -4.94306468E-26
  0.119000003      -4.57047766E-26
  0.119999997      -3.75249115E-26
  0.120999999      -2.40440274E-26
  0.122000001      -4.52552553E-27
  0.123000003       2.15732442E-26
  0.123999998       5.45074413E-26
  0.125000000       9.41450208E-26
  0.126000002       1.39866025E-25
  0.127000004       1.90467569E-25
  0.128000006       2.44082316E-25
  0.128999993       2.98119460E-25
  0.129999995       3.49237647E-25
  0.130999997       3.93359771E-25
  0.131999999       4.25738863E-25
  0.133000001       4.41083292E-25
  0.134000003       4.33747231E-25
  0.135000005       3.97990187E-25
  0.136000007       3.28305124E-25
  0.136999995       2.19810397E-25
  0.137999997       6.86960537E-26
  0.138999999      -1.27290497E-25
  0.140000001      -3.68340209E-25
  0.141000003      -6.52085588E-25
  0.142000005      -9.73142165E-25
  0.143000007      -1.32272302E-24
  0.143999994      -1.68836389E-24
  0.144999996      -2.05379601E-24
  0.145999998      -2.39900549E-24
  0.147000000      -2.70050852E-24
  0.148000002      -2.93187157E-24
  0.149000004      -3.06449407E-24
  0.150000006      -3.06865729E-24
  0.150999993      -2.91483473E-24
  0.151999995      -2.57523859E-24
  0.152999997      -2.02556682E-24
  0.153999999      -1.24689228E-24
  0.155000001      -2.27626406E-25
  0.156000003       1.03452797E-24
  0.157000005       2.53072988E-24
  0.158000007       4.23936138E-24
  0.158999994       6.12469990E-24
  0.159999996       8.13600924E-24
  0.160999998       1.02071359E-23
  0.162000000       1.22567054E-23
  0.163000003       1.41889682E-23
  0.164000005       1.58953532E-23
  0.165000007       1.72567378E-23
  0.165999994       1.81464388E-23
  0.166999996       1.84338760E-23
  0.167999998       1.79888796E-23
  0.169000000       1.66865381E-23
  0.170000002       1.44125250E-23
  0.171000004       1.10687953E-23
  0.172000006       6.57953737E-24
  0.172999993       8.97311530E-25
  0.173999995      -5.99074816E-24
  0.174999997      -1.40567377E-23
  0.175999999      -2.32258842E-23
  0.177000001      -3.33706307E-23
  0.178000003      -4.43049938E-23
  0.179000005      -5.57793196E-23
  0.180000007      -6.74756088E-23
  0.180999994      -7.90036624E-23
  0.181999996      -8.98983111E-23
  0.182999998      -9.96182513E-23
  0.184000000      -1.07546972E-22
  0.185000002      -1.12996499E-22
  0.186000004      -1.15214738E-22
  0.187000006      -1.13397569E-22
  0.187999994      -1.06706350E-22
  0.188999996      -9.42923042E-23
  0.189999998      -7.53285487E-23
  0.191000000      -4.90507432E-23
  0.192000002      -1.48069665E-23
  0.193000004       2.78830428E-23
  0.194000006       7.92595688E-23
  0.194999993       1.39246698E-22
  0.195999995       2.07370075E-22
  0.196999997       2.82671708E-22
  0.197999999       3.63625927E-22
  0.199000001       4.48061534E-22
  0.200000003       5.33096852E-22
  0.201000005       6.15094664E-22
  0.202000007       6.89645831E-22
  0.202999994       7.51589865E-22
  0.203999996       7.95081370E-22
  0.204999998       8.13711109E-22
  0.206000000       8.00688619E-22
  0.207000002       7.49092117E-22
  0.208000004       6.52188393E-22
  0.209000006       5.03822564E-22
  0.209999993       2.98872260E-22
  0.210999995       3.37573966E-23
  0.211999997      -2.93010203E-22
  0.213000000      -6.80258210E-22
  0.214000002      -1.12359329E-21
  0.215000004      -1.61488082E-21
  0.216000006      -2.14180386E-21
  0.216999993      -2.68754071E-21
  0.217999995      -3.23060942E-21
  0.218999997      -3.74491846E-21
  0.219999999      -4.20007095E-21
  0.221000001      -4.56195722E-21
  0.222000003      -4.79366755E-21
  0.223000005      -4.85674169E-21
  0.224000007      -4.71275976E-21
  0.224999994      -4.32526280E-21
  0.225999996      -3.66196452E-21
  0.226999998      -2.69720353E-21
  0.228000000      -1.41454771E-21
  0.229000002       1.90546272E-22
  0.230000004       2.10815077E-21
  0.231000006       4.31150809E-21
  0.231999993       6.75505819E-21
  0.232999995       9.37302828E-21
  0.233999997       1.20787603E-20
  0.234999999       1.47649510E-20
  0.236000001       1.73049561E-20
  0.237000003       1.95552799E-20
  0.238000005       2.13593625E-20
  0.238999993       2.25526723E-20
  0.239999995       2.29691157E-20
  0.240999997       2.24486446E-20
  0.241999999       2.08459127E-20
  0.243000001       1.80397251E-20
  0.244000003       1.39429516E-20
  0.245000005       8.51250114E-21
  0.246000007       1.75885780E-21
  0.246999994      -6.24532833E-21
  0.247999996      -1.53581897E-20
  0.248999998      -2.53637228E-20
  0.250000000      -3.59695677E-20
  0.250999987      -4.68080344E-20
  0.252000004      -5.74408564E-20
  0.252999991      -6.73679672E-20
  0.254000008      -7.60406070E-20
  0.254999995      -8.28787023E-20
  0.256000012      -8.72923894E-20
  0.256999999      -8.87072754E-20
  0.257999986      -8.65928467E-20
  0.259000003      -8.04930682E-20
  0.259999990      -7.00581266E-20
  0.261000007      -5.50759729E-20
  0.261999995      -3.55021686E-20
  0.263000011      -1.14863867E-20
  0.263999999       1.66061290E-20
  0.264999986       4.81798489E-20
  0.266000003       8.24026146E-20
  0.266999990       1.18209086E-19
  0.268000007       1.54315196E-19
  0.268999994       1.89244397E-19
  0.270000011       2.21366146E-19
  0.270999998       2.48946364E-19
  0.272000015       2.70209249E-19
  0.273000002       2.83409190E-19
  0.273999989       2.86910491E-19
  0.275000006       2.79272667E-19
  0.275999993       2.59338079E-19
  0.277000010       2.26317934E-19
  0.277999997       1.79873061E-19
  0.279000014       1.20184871E-19
  0.280000001       4.80121445E-20
  0.280999988      -3.52703771E-20
  0.282000005      -1.27655772E-19
  0.282999992      -2.26514234E-19
  0.284000009      -3.28630560E-19
  0.284999996      -4.30271411E-19
  0.286000013      -5.27282766E-19
  0.287000000      -6.15216563E-19
  0.287999988      -6.89484612E-19
  0.289000005      -7.45535456E-19
  0.289999992      -7.79049454E-19
  0.291000009      -7.86145061E-19
  0.291999996      -7.63588932E-19
  0.293000013      -7.09000543E-19
  0.294000000      -6.21042448E-19
  0.294999987      -4.99585812E-19
  0.296000004      -3.45841707E-19
  0.296999991      -1.62449147E-19
  0.298000008       4.64884616E-20
  0.298999995       2.75425320E-19
  0.300000012       5.17458135E-19
  0.300999999       7.64476600E-19
  0.301999986       1.00737881E-18
  0.303000003       1.23634964E-18
  0.303999990       1.44119430E-18
  0.305000007       1.61171882E-18
  0.305999994       1.73814594E-18
  0.307000011       1.81155077E-18
  0.307999998       1.82429866E-18
  0.308999985       1.77046926E-18
  0.310000002       1.64624462E-18
  0.310999990       1.45024407E-18
  0.312000006       1.18378438E-18
  0.312999994       8.51050822E-19
  0.314000010       4.59162633E-19
  0.314999998       1.81217000E-20
  0.316000015      -4.59361725E-19
  0.317000002      -9.58169315E-19
  0.317999989      -1.46119759E-18
  0.319000006      -1.94989487E-18
  0.319999993      -2.40489776E-18
  0.321000010      -2.80674831E-18
  0.321999997      -3.13666516E-18
  0.323000014      -3.37734163E-18
  0.324000001      -3.51373875E-18
  0.324999988      -3.53383800E-18
  0.326000005      -3.42931753E-18
  0.326999992      -3.19612249E-18
  0.328000009      -2.83489375E-18
  0.328999996      -2.35122987E-18
  0.330000013      -1.75575971E-18
  0.331000000      -1.06401152E-18
  0.331999987      -2.96070559E-19
  0.333000004       5.23970683E-19
  0.333999991       1.36876037E-18
  0.335000008       2.20861070E-18
  0.335999995       3.01256884E-18
  0.337000012       3.74959400E-18
  0.338000000       4.38980036E-18
  0.338999987       4.90571084E-18
  0.340000004       5.27346914E-18
  0.340999991       5.47395663E-18
  0.342000008       5.49376140E-18
  0.342999995       5.32594382E-18
  0.344000012       4.97056470E-18
  0.344999999       4.43493340E-18
  0.345999986       3.73355952E-18
  0.347000003       2.88779071E-18
  0.347999990       1.92514500E-18
  0.349000007       8.78351970E-19
  0.349999994      -2.15864142E-19
  0.351000011      -1.31821612E-18
  0.351999998      -2.38844245E-18
  0.352999985      -3.38698594E-18
  0.354000002      -4.27668838E-18
  0.354999989      -5.02442449E-18
  0.356000006      -5.60259396E-18
  0.356999993      -5.99040105E-18
  0.358000010      -6.17484992E-18
  0.358999997      -6.15140224E-18
  0.360000014      -5.92425059E-18
  0.361000001      -5.50618648E-18
  0.361999989      -4.91805444E-18
  0.363000005      -4.18780451E-18
  0.363999993      -3.34918234E-18
  0.365000010      -2.44010485E-18
  0.365999997      -1.50079876E-18
  0.367000014      -5.71789374E-19
  0.368000001       3.08164767E-19
  0.368999988       1.10408149E-18
  0.370000005       1.78660342E-18
  0.370999992       2.33357887E-18
  0.372000009       2.73128400E-18
  0.372999996       2.97520095E-18
  0.374000013       3.07029839E-18
  0.375000000       3.03077177E-18
  0.375999987       2.87924159E-18
  0.377000004       2.64542369E-18
  0.377999991       2.36432848E-18
  0.379000008       2.07406398E-18
  0.379999995       1.81335134E-18
  0.381000012       1.61887952E-18
  0.381999999       1.52264502E-18
  0.382999986       1.54942985E-18
  0.384000003       1.71457553E-18
  0.384999990       2.02220224E-18
  0.386000007       2.46400788E-18
  0.386999995       3.01876028E-18
  0.388000011       3.65256075E-18
  0.388999999       4.31992387E-18
  0.389999986       4.96567275E-18
  0.391000003       5.52760425E-18
  0.391999990       5.93983219E-18
  0.393000007       6.13667098E-18
  0.393999994       6.05688404E-18
  0.395000011       5.64807939E-18
  0.395999998       4.87102220E-18
  0.397000015       3.70360359E-18
  0.398000002       2.14421572E-18
  0.398999989       2.14291374E-19
  0.400000006      -2.04021679E-18
  0.400999993      -4.54859009E-18
  0.402000010      -7.21646346E-18
  0.402999997      -9.92837261E-18
  0.404000014      -1.25517271E-17
  0.405000001      -1.49421310E-17
  0.405999988      -1.69498737E-17
  0.407000005      -1.84273920E-17
  0.407999992      -1.92373474E-17
  0.409000009      -1.92609982E-17
  0.409999996      -1.84064329E-17
  0.411000013      -1.66162139E-17
  0.412000000      -1.38740126E-17
  0.412999988      -1.02097662E-17
  0.414000005      -5.70298226E-18
  0.414999992      -4.83838103E-19
  0.416000009       5.26817518E-18
  0.416999996       1.13282261E-17
  0.418000013       1.74327619E-17
  0.419000000       2.32886994E-17
  0.419999987       2.85849400E-17
  0.421000004       3.30058763E-17
  0.421999991       3.62463728E-17
  0.423000008       3.80276567E-17
  0.423999995       3.81133857E-17
  0.425000012       3.63251601E-17
  0.425999999       3.25566874E-17
  0.426999986       2.67857692E-17
  0.428000003       1.90833843E-17
  0.428999990       9.61917995E-18
  0.430000007      -1.33720363E-18
  0.430999994      -1.34193767E-17
  0.432000011      -2.61722510E-17
  0.432999998      -3.90649180E-17
  0.433999985      -5.15081562E-17
  0.435000002      -6.28761424E-17
  0.435999990      -7.25317026E-17
  0.437000006      -7.98542296E-17
  0.437999994      -8.42692234E-17
  0.439000010      -8.52782183E-17
  0.439999998      -8.24877940E-17
  0.441000015      -7.56363033E-17
  0.442000002      -6.46168547E-17
  0.442999989      -4.94953975E-17
  0.444000006      -3.05225742E-17
  0.444999993      -8.13843814E-18
  0.446000010       1.70307158E-17
  0.446999997       4.41838723E-17
  0.448000014       7.23652606E-17
  0.449000001       1.00492485E-16
  0.449999988       1.27392207E-16
  0.451000005       1.51842329E-16
  0.451999992       1.72619372E-16
  0.453000009       1.88549362E-16
  0.453999996       1.98560206E-16
  0.455000013       2.01733522E-16
  0.456000000       1.97353714E-16
  0.456999987       1.84951894E-16
  0.458000004       1.64342656E-16
  0.458999991       1.35651546E-16
  0.460000008       9.93315934E-17
  0.460999995       5.61675422E-17
  0.462000012       7.26686357E-18
  0.463000000      -4.59629392E-17
  0.463999987      -1.01850491E-16
  0.465000004      -1.58509497E-16
  0.465999991      -2.13899258E-16
  0.467000008      -2.65894786E-16
  0.467999995      -3.12364337E-16
  0.469000012      -3.51251381E-16
  0.469999999      -3.80658274E-16
  0.470999986      -3.98927928E-16
  0.472000003      -4.04720363E-16
  0.472999990      -3.97080655E-16
  0.474000007      -3.75495317E-16
  0.474999994      -3.39933909E-16
  0.476000011      -2.90874105E-16
  0.476999998      -2.29307965E-16
  0.477999985      -1.56728611E-16
  0.479000002      -7.50968492E-17
  0.479999989       1.32116725E-17
  0.481000006       1.05477486E-16
  0.481999993       1.98724504E-16
  0.483000010       2.89820449E-16
  0.483999997       3.75587061E-16
  0.485000014       4.52916299E-16
  0.486000001       5.18887566E-16
  0.486999989       5.70882366E-16
  0.488000005       6.06690525E-16
  0.488999993       6.24604636E-16
  0.490000010       6.23497988E-16
  0.490999997       6.02882582E-16
  0.492000014       5.62944132E-16
  0.493000001       5.04552539E-16
  0.493999988       4.29246149E-16
  0.495000005       3.39190162E-16
  0.495999992       2.37109854E-16
  0.497000009       1.26200789E-16
  0.497999996       1.00191077E-17
  0.499000013      -1.07644428E-16
  0.500000000      -2.22901855E-16
  0.500999987      -3.31911740E-16
  0.501999974      -4.31023383E-16
  0.503000021      -5.16916097E-16
  0.504000008      -5.86727811E-16
  0.504999995      -6.38167275E-16
  0.505999982      -6.69605644E-16
  0.507000029      -6.80143052E-16
  0.508000016      -6.69647149E-16
  0.509000003      -6.38761575E-16
  0.509999990      -5.88883775E-16
  0.510999978      -5.22112220E-16
  0.512000024      -4.41165332E-16
  0.513000011      -3.49274433E-16
  0.513999999      -2.50055190E-16
  0.514999986      -1.47362478E-16
  0.515999973      -4.51342929E-17
  0.517000020       5.27687464E-17
  0.518000007       1.42721915E-16
  0.518999994       2.21486132E-16
  0.519999981       2.86342717E-16
  0.521000028       3.35207254E-16
  0.522000015       3.66717753E-16
  0.523000002       3.80292753E-16
  0.523999989       3.76156903E-16
  0.524999976       3.55332624E-16
  0.526000023       3.19597257E-16
  0.527000010       2.71407912E-16
  0.527999997       2.13796066E-16
  0.528999984       1.50236513E-16
  0.529999971       8.44956062E-17
  0.531000018       2.04651498E-17
  0.532000005      -3.80113414E-17
  0.532999992      -8.73126856E-17
  0.533999979      -1.24207032E-16
  0.535000026      -1.46004710E-16
  0.536000013      -1.50690205E-16
  0.537000000      -1.37027551E-16
  0.537999988      -1.04634251E-16
  0.538999975      -5.40202707E-17
  0.540000021       1.34100015E-17
  0.541000009       9.53934262E-17
  0.541999996       1.88880353E-16
  0.542999983       2.90140919E-16
  0.544000030       3.94901530E-16
  0.545000017       4.98506259E-16
  0.546000004       5.96096525E-16
  0.546999991       6.82802788E-16
  0.547999978       7.53939579E-16
  0.549000025       8.05196825E-16
  0.550000012       8.32819523E-16
  0.550999999       8.33768517E-16
  0.551999986       8.05855817E-16
  0.552999973       7.47849413E-16
  0.554000020       6.59542998E-16
  0.555000007       5.41787684E-16
  0.555999994       3.96485058E-16
  0.556999981       2.26541370E-16
  0.558000028       3.57849980E-17
  0.559000015      -1.71149532E-16
  0.560000002      -3.88966370E-16
  0.560999990      -6.11876166E-16
  0.561999977      -8.33780429E-16
  0.563000023      -1.04846532E-15
  0.564000010      -1.24979701E-15
  0.564999998      -1.43191227E-15
  0.565999985      -1.58939592E-15
  0.566999972      -1.71744115E-15
  0.568000019      -1.81198432E-15
  0.569000006      -1.86981295E-15
  0.569999993      -1.88864207E-15
  0.570999980      -1.86715877E-15
  0.572000027      -1.80503314E-15
  0.573000014      -1.70289960E-15
  0.574000001      -1.56230738E-15
  0.574999988      -1.38564765E-15
  0.575999975      -1.17605877E-15
  0.577000022      -9.37316919E-16
  0.578000009      -6.73716242E-16
  0.578999996      -3.89945117E-16
  0.579999983      -9.09632454E-17
  0.580999970       2.18115007E-16
  0.582000017       5.32126956E-16
  0.583000004       8.45954463E-16
  0.583999991       1.15460088E-15
  0.584999979       1.45325083E-15
  0.586000025       1.73731317E-15
  0.587000012       2.00244857E-15
  0.588000000       2.24458268E-15
  0.588999987       2.45990967E-15
  0.589999974       2.64488897E-15
  0.591000021       2.79623893E-15
  0.592000008       2.91093312E-15
  0.592999995       2.98620047E-15
  0.593999982       3.01953714E-15
  0.595000029       3.00872964E-15
  0.596000016       2.95189119E-15
  0.597000003       2.84751513E-15
  0.597999990       2.69454246E-15
  0.598999977       2.49244146E-15
  0.600000024       2.24129852E-15
  0.601000011       1.94191430E-15
  0.601999998       1.59590134E-15
  0.602999985       1.20577512E-15
  0.603999972       7.75033929E-16
  0.605000019       3.08220122E-16
  0.606000006      -1.89043751E-16
  0.606999993      -7.10050514E-16
  0.607999980      -1.24703970E-15
  0.609000027      -1.79126991E-15
  0.610000014      -2.33313171E-15
  0.611000001      -2.86230602E-15
  0.611999989      -3.36796288E-15
  0.612999976      -3.83899726E-15
  0.614000022      -4.26430013E-15
  0.615000010      -4.63305253E-15
  0.615999997      -4.93503545E-15
  0.616999984      -5.16094845E-15
  0.617999971      -5.30271975E-15
  0.619000018      -5.35379922E-15
  0.620000005      -5.30942317E-15
  0.620999992      -5.16683533E-15
  0.621999979      -4.92545720E-15
  0.623000026      -4.58699724E-15
  0.624000013      -4.15549282E-15
  0.625000000      -3.63727679E-15
  0.625999987      -3.04087136E-15
  0.626999974      -2.37680643E-15
  0.628000021      -1.65736862E-15
  0.629000008      -8.96286113E-16
  0.629999995      -1.08360429E-16
  0.630999982       6.90943992E-16
  0.632000029       1.48593783E-15
  0.633000016       2.26115636E-15
  0.634000003       3.00180366E-15
  0.634999990       3.69417580E-15
  0.635999978       4.32604417E-15
  0.637000024       4.88698581E-15
  0.638000011       5.36864602E-15
  0.638999999       5.76492191E-15
  0.639999986       6.07205944E-15
  0.640999973       6.28865932E-15
  0.642000020       6.41558975E-15
  0.643000007       6.45581196E-15
  0.643999994       6.41412269E-15
  0.644999981       6.29682387E-15
  0.646000028       6.11133890E-15
  0.647000015       5.86578490E-15
  0.648000002       5.56852716E-15
  0.648999989       5.22773192E-15
  0.649999976       4.85094032E-15
  0.651000023       4.44468427E-15
  0.652000010       4.01416579E-15
  0.652999997       3.56301275E-15
  0.653999984       3.09312970E-15
  0.654999971       2.60465299E-15
  0.656000018       2.09601564E-15
  0.657000005       1.56412426E-15
  0.657999992       1.00464397E-15
  0.658999979       4.12382040E-16
  0.660000026      -2.18242777E-16
  0.661000013      -8.92664518E-16
  0.662000000      -1.61559030E-15
  0.662999988      -2.39040109E-15
  0.663999975      -3.21856320E-15
  0.665000021      -4.09907661E-15
  0.666000009      -5.02799012E-15
  0.666999996      -5.99801225E-15
  0.667999983      -6.99824127E-15
  0.669000030      -8.01403536E-15
  0.670000017      -9.02703934E-15
  0.671000004      -1.00153819E-14
  0.671999991      -1.09540427E-14
  0.672999978      -1.18153922E-14
  0.674000025      -1.25698851E-14
  0.675000012      -1.31869079E-14
  0.675999999      -1.36357354E-14
  0.676999986      -1.38865885E-14
  0.677999973      -1.39117411E-14
  0.679000020      -1.36866464E-14
  0.680000007      -1.31910440E-14
  0.680999994      -1.24099966E-14
  0.681999981      -1.13348246E-14
  0.683000028      -9.96388742E-15
  0.684000015      -8.30318531E-15
  0.685000002      -6.36674983E-15
  0.685999990      -4.17678765E-15
  0.686999977      -1.76357638E-15
  0.688000023       8.34907247E-16
  0.689000010       3.57362099E-15
  0.689999998       6.40134266E-15
  0.690999985       9.26178859E-15
  0.691999972       1.20949385E-14
  0.693000019       1.48385197E-14
  0.694000006       1.74296307E-14
  0.694999993       1.98064221E-14
  0.695999980       2.19098065E-14
  0.697000027       2.36851452E-14
  0.698000014       2.50838236E-14
  0.699000001       2.60647166E-14
  0.699999988       2.65954319E-14
  0.700999975       2.66533367E-14
  0.702000022       2.62263118E-14
  0.703000009       2.53132103E-14
  0.703999996       2.39239899E-14
  0.704999983       2.20795367E-14
  0.705999970       1.98111587E-14
  0.707000017       1.71597931E-14
  0.708000004       1.41749176E-14
  0.708999991       1.09132343E-14
  0.709999979       7.43714664E-15
  0.711000025       3.81309542E-15
  0.712000012       1.09795951E-16
  0.713000000      -3.60355387E-15
  0.713999987      -7.25903932E-15
  0.714999974      -1.07917198E-14
  0.716000021      -1.41411668E-14
  0.717000008      -1.72528346E-14
  0.717999995      -2.00791837E-14
  0.718999982      -2.25805567E-14
  0.720000029      -2.47257726E-14
  0.721000016      -2.64924123E-14
  0.722000003      -2.78668249E-14
  0.722999990      -2.88438469E-14
  0.723999977      -2.94262431E-14
  0.725000024      -2.96239440E-14
  0.726000011      -2.94530635E-14
  0.726999998      -2.89347878E-14
  0.727999985      -2.80941720E-14
  0.728999972      -2.69588784E-14
  0.730000019      -2.55579520E-14
  0.731000006      -2.39206458E-14
  0.731999993      -2.20753642E-14
  0.732999980      -2.00487735E-14
  0.734000027      -1.78650955E-14
  0.735000014      -1.55456313E-14
  0.736000001      -1.31085074E-14
  0.736999989      -1.05686766E-14
  0.737999976      -7.93814375E-15
  0.739000022      -5.22641775E-15
  0.740000010      -2.44114938E-15
  0.740999997       4.11070066E-16
  0.741999984       3.32380027E-15
  0.742999971       6.28977486E-15
  0.744000018       9.29991354E-15
  0.745000005       1.23423754E-14
  0.745999992       1.54017034E-14
  0.746999979       1.84581100E-14
  0.748000026       2.14869507E-14
  0.749000013       2.44584253E-14
  0.750000000       2.73375191E-14
  0.750999987       3.00842183E-14
  0.751999974       3.26540010E-14
  0.753000021       3.49985950E-14
  0.754000008       3.70669885E-14
  0.754999995       3.88066756E-14
  0.755999982       4.01650759E-14
  0.757000029       4.10911031E-14
  0.758000016       4.15368254E-14
  0.759000003       4.14591559E-14
  0.759999990       4.08215264E-14
  0.760999978       3.95954394E-14
  0.762000024       3.77619079E-14
  0.763000011       3.53126680E-14
  0.763999999       3.22511522E-14
  0.764999986       2.85931658E-14
  0.765999973       2.43672388E-14
  0.767000020       1.96146251E-14
  0.768000007       1.43889722E-14
  0.768999994       8.75562880E-15
  0.769999981       2.79061908E-15
  0.771000028      -3.42068729E-15
  0.772000015      -9.78517279E-15
  0.773000002      -1.62037979E-14
  0.773999989      -2.25736008E-14
  0.774999976      -2.87898062E-14
  0.776000023      -3.47479952E-14
  0.777000010      -4.03462698E-14
  0.777999997      -4.54873599E-14
  0.778999984      -5.00805858E-14
  0.779999971      -5.40436870E-14
  0.781000018      -5.73044013E-14
  0.782000005      -5.98018068E-14
  0.782999992      -6.14874159E-14
  0.783999979      -6.23259243E-14
  0.785000026      -6.22957022E-14
  0.786000013      -6.13889704E-14
  0.787000000      -5.96117190E-14
  0.787999988      -5.69833013E-14
  0.788999975      -5.35358772E-14
  0.790000021      -4.93135670E-14
  0.791000009      -4.43714957E-14
  0.791999996      -3.87746679E-14
  0.792999983      -3.25967823E-14
  0.794000030      -2.59189473E-14
  0.795000017      -1.88284074E-14
  0.796000004      -1.14172570E-14
  0.796999991      -3.78119319E-15
  0.797999978       3.98169309E-15
  0.799000025       1.17720503E-14
  0.800000012       1.94903382E-14
  0.800999999       2.70378287E-14
  0.801999986       3.43175365E-14
  0.802999973       4.12350750E-14
  0.804000020       4.76994983E-14
  0.805000007       5.36240770E-14
  0.805999994       5.89270521E-14
  0.806999981       6.35323838E-14
  0.808000028       6.73705205E-14
  0.809000015       7.03791206E-14
  0.810000002       7.25038316E-14
  0.810999990       7.36990628E-14
  0.811999977       7.39287578E-14
  0.813000023       7.31671329E-14
  0.814000010       7.13994497E-14
  0.814999998       6.86226792E-14
  0.815999985       6.48461048E-14
  0.816999972       6.00918512E-14
  0.818000019       5.43952666E-14
  0.819000006       4.78051301E-14
  0.819999993       4.03837052E-14
  0.820999980       3.22065677E-14
  0.822000027       2.33622055E-14
  0.823000014       1.39513865E-14
  0.824000001       4.08626778E-15
  0.824999988      -6.11073454E-15
  0.825999975      -1.65083113E-14
  0.827000022      -2.69678519E-14
  0.828000009      -3.73452185E-14
  0.828999996      -4.74926800E-14
  0.829999983      -5.72609790E-14
  0.830999970      -6.65014647E-14
  0.832000017      -7.50682204E-14
  0.833000004      -8.28202050E-14
  0.833999991      -8.96232958E-14
  0.834999979      -9.53521862E-14
  0.836000025      -9.98921134E-14
  0.837000012      -1.03140383E-13
  0.838000000      -1.05007596E-13
  0.838999987      -1.05418637E-13
  0.839999974      -1.04313320E-13
  0.841000021      -1.01646752E-13
  0.842000008      -9.73893885E-14
  0.842999995      -9.15267685E-14
  0.843999982      -8.40590211E-14
  0.845000029      -7.50000851E-14
  0.846000016      -6.43767605E-14
  0.847000003      -5.22275738E-14
  0.847999990      -3.86015445E-14
  0.848999977      -2.35568773E-14
  0.850000024      -7.15964594E-15
  0.851000011       1.05174963E-14
  0.851999998       2.93965393E-14
  0.852999985       4.93952312E-14
  0.853999972       7.04280587E-14
  0.855000019       9.24070865E-14
  0.856000006       1.15242614E-13