   0.00000000       0.00000000    
   1.00000005E-03   0.00000000    
   2.00000009E-03   0.00000000    
   3.00000003E-03   0.00000000    
   4.00000019E-03   0.00000000    
   4.99999989E-03   0.00000000    
   6.00000005E-03   0.00000000    
   7.00000022E-03   0.00000000    
   8.00000038E-03   0.00000000    
   8.99999961E-03   0.00000000    
   9.99999978E-03   0.00000000    
   1.09999999E-02   0.00000000    
   1.20000001E-02   0.00000000    
   1.30000003E-02   0.00000000    
   1.40000004E-02   0.00000000    
   1.49999997E-02   0.00000000    
   1.60000008E-02   0.00000000    
   1.70000009E-02   0.00000000    
   1.79999992E-02   0.00000000    
   1.89999994E-02   0.00000000    
   1.99999996E-02  -5.99251219E-38
   2.09999997E-02  -2.95760386E-37
   2.19999999E-02  -7.61525404E-37
   2.30000000E-02  -2.80274652E-36
   2.40000002E-02  -8.28119842E-36
   2.50000004E-02  -2.38598864E-35
   2.60000005E-02  -5.80747416E-35
   2.70000007E-02  -1.22789523E-34
   2.80000009E-02  -2.43828729E-34
   2.89999992E-02  -4.65710107E-34
   2.99999993E-02  -8.55351862E-34
   3.09999995E-02  -1.51681401E-33
   3.20000015E-02  -2.62094502E-33
   3.29999998E-02  -4.41164462E-33
   3.40000018E-02  -7.22813019E-33
   3.50000001E-02  -1.15367857E-32
   3.59999985E-02  -1.79364363E-32
   3.70000005E-02  -2.71731947E-32
   3.79999988E-02  -4.01802777E-32
   3.90000008E-02  -5.80693034E-32
   3.99999991E-02  -8.19929997E-32
   4.10000011E-02  -1.12956167E-31
   4.19999994E-02  -1.51562505E-31
   4.30000015E-02  -1.97613437E-31
   4.39999998E-02  -2.49546989E-31
   4.50000018E-02  -3.03623232E-31
   4.60000001E-02  -3.52810241E-31
   4.69999984E-02  -3.85304479E-31
   4.80000004E-02  -3.82691308E-31
   4.89999987E-02  -3.17782390E-31
   5.00000007E-02  -1.52052980E-31
   5.09999990E-02   1.67218303E-31
   5.20000011E-02   7.09890160E-31
   5.29999994E-02   1.56568926E-30
   5.40000014E-02   2.84626397E-30
   5.49999997E-02   4.68587069E-30
   5.60000017E-02   7.23975573E-30
   5.70000000E-02   1.06790137E-29
   5.79999983E-02   1.51804130E-29
   5.90000004E-02   2.09094753E-29
   5.99999987E-02   2.79949475E-29
   6.10000007E-02   3.64928456E-29
   6.19999990E-02   4.63386629E-29
   6.30000010E-02   5.72870811E-29
   6.40000030E-02   6.88399284E-29
   6.49999976E-02   8.01651307E-29
   6.59999996E-02   9.00122540E-29
   6.70000017E-02   9.66339021E-29
   6.80000037E-02   9.77265243E-29
   6.89999983E-02   9.04091099E-29
   7.00000003E-02   7.12632417E-29
   7.10000023E-02   3.64623346E-29
   7.19999969E-02  -1.79791970E-29
   7.29999989E-02  -9.58057101E-29
   7.40000010E-02  -1.99941789E-28
   7.50000030E-02  -3.31717335E-28
   7.59999976E-02  -4.89894515E-28
   7.69999996E-02  -6.69519501E-28
   7.80000016E-02  -8.60656588E-28
   7.90000036E-02  -1.04710500E-27
   7.99999982E-02  -1.20525110E-27
   8.10000002E-02  -1.30326533E-27
   8.20000023E-02  -1.30091252E-27
   8.29999968E-02  -1.15029719E-27
   8.39999989E-02  -7.97902857E-28
   8.50000009E-02  -1.88298628E-28
   8.60000029E-02   7.30140794E-28
   8.69999975E-02   1.99723519E-27
   8.79999995E-02   3.63059288E-27
   8.90000015E-02   5.61289903E-27
   9.00000036E-02   7.87730770E-27
   9.09999982E-02   1.02917367E-26
   9.20000002E-02   1.26433410E-26
   9.30000022E-02   1.46249804E-26
   9.39999968E-02   1.58260258E-26
   9.49999988E-02   1.57304195E-26
   9.60000008E-02   1.37252938E-26
   9.70000029E-02   9.12373489E-27
   9.79999974E-02   1.20526814E-27
   9.89999995E-02  -1.07227960E-26
  0.100000001      -2.72408400E-26
  0.101000004      -4.87084231E-26
  0.101999998      -7.51330971E-26
  0.103000000      -1.06020490E-25
  0.104000002      -1.40213271E-25
  0.104999997      -1.75730427E-25
  0.105999999      -2.09622480E-25
  0.107000001      -2.37863035E-25
  0.108000003      -2.55300756E-25
  0.108999997      -2.55699254E-25
  0.109999999      -2.31894069E-25
  0.111000001      -1.76095756E-25
  0.112000003      -8.03647548E-26
  0.112999998       6.27225401E-26
  0.114000000       2.59208107E-25
  0.115000002       5.12692831E-25
  0.115999997       8.23109301E-25
  0.116999999       1.18537602E-24
  0.118000001       1.58800974E-24
  0.119000003       2.01180219E-24
  0.119999997       2.42869585E-24
  0.120999999       2.80102340E-24
  0.122000001       3.08129858E-24
  0.123000003       3.21275535E-24
  0.123999998       3.13084201E-24
  0.125000000       2.76585599E-24
  0.126000002       2.04687041E-24
  0.127000004       9.07051004E-25
  0.128000006      -7.09624610E-25
  0.128999993      -2.84034852E-24
  0.129999995      -5.49439096E-24
  0.130999997      -8.64333042E-24
  0.131999999      -1.22111598E-23
  0.133000001      -1.60650072E-23
  0.134000003      -2.00073837E-23
  0.135000005      -2.37710044E-23
  0.136000007      -2.70173500E-23
  0.136999995      -2.93401952E-23
  0.137999997      -3.02752730E-23
  0.138999999      -2.93171573E-23
  0.140000001      -2.59441379E-23
  0.141000003      -1.96515933E-23
  0.142000005      -9.99376484E-24
  0.143000007       3.36677946E-24
  0.143999994       2.06033997E-23
  0.144999996       4.16656956E-23
  0.145999998       6.62190859E-23
  0.147000000       9.35877946E-23
  0.148000002       1.22706216E-22
  0.149000004       1.52084368E-22
  0.150000006       1.79793643E-22
  0.150999993       2.03479224E-22
  0.151999995       2.20405288E-22
  0.152999997       2.27538560E-22
  0.153999999       2.21674155E-22
  0.155000001       1.99606081E-22
  0.156000003       1.58342357E-22
  0.157000005       9.53610908E-23
  0.158000007       8.90067657E-24
  0.158999994      -1.01726706E-22
  0.159999996      -2.35813774E-22
  0.160999998      -3.90948383E-22
  0.162000000      -5.62738483E-22
  0.163000003      -7.44598564E-22
  0.164000005      -9.27626612E-22
  0.165000007      -1.10060106E-21
  0.165999994      -1.25012628E-21
  0.166999996      -1.36095283E-21
  0.167999998      -1.41649268E-21
  0.169000000      -1.39954103E-21
  0.170000002      -1.29320823E-21
  0.171000004      -1.08204867E-21
  0.172000006      -7.53361357E-22
  0.172999993      -2.98619951E-22
  0.173999995       2.85030440E-22
  0.174999997       9.93286598E-22
  0.175999999       1.81330632E-21
  0.177000001       2.72254180E-21
  0.178000003       3.68790600E-21
  0.179000005       4.66539721E-21
  0.180000007       5.60030234E-21
  0.180999994       6.42809324E-21
  0.181999996       7.07610605E-21
  0.182999998       7.46607162E-21
  0.184000000       7.51752404E-21
  0.185000002       7.15206288E-21
  0.186000004       6.29839633E-21
  0.187000006       4.89802479E-21
  0.187999994       2.91135708E-21
  0.188999996       3.23989642E-22
  0.189999998      -2.84718939E-21
  0.191000000      -6.54847104E-21
  0.192000002      -1.06847970E-20
  0.193000004      -1.51167063E-20
  0.194000006      -1.96592300E-20
  0.194999993      -2.40831600E-20
  0.195999995      -2.81191099E-20
  0.196999997      -3.14646580E-20
  0.197999999      -3.37947709E-20
  0.199000001      -3.47755260E-20
  0.200000003      -3.40809980E-20
  0.201000005      -3.14129431E-20
  0.202000007      -2.65226949E-20
  0.202999994      -1.92344486E-20
  0.203999996      -9.46890126E-21
  0.204999998       2.73403266E-21
  0.206000000       1.71948587E-20
  0.207000002       3.35780560E-20
  0.208000004       5.13811703E-20
  0.209000006       6.99310510E-20
  0.209999993       8.83887333E-20
  0.210999995       1.05764218E-19
  0.211999997       1.20942103E-19
  0.213000000       1.32718596E-19
  0.214000002       1.39849901E-19
  0.215000004       1.41111261E-19
  0.216000006       1.35365354E-19
  0.216999993       1.21638021E-19
  0.217999995       9.91983425E-20
  0.218999997       6.76396831E-20
  0.219999999       2.69573929E-20
  0.221000001      -2.23815073E-20
  0.222000003      -7.93816800E-20
  0.223000005      -1.42481072E-19
  0.224000007      -2.09535822E-19
  0.224999994      -2.77833114E-19
  0.225999996      -3.44135879E-19
  0.226999998      -4.04762066E-19
  0.228000000      -4.55700107E-19
  0.229000002      -4.92760280E-19
  0.230000004      -5.11759533E-19
  0.231000006      -5.08736136E-19
  0.231999993      -4.80187134E-19
  0.232999995      -4.23319811E-19
  0.233999997      -3.36307184E-19
  0.234999999      -2.18534009E-19
  0.236000001      -7.08197855E-20
  0.237000003       1.04396429E-19
  0.238000005       3.02924656E-19
  0.238999993       5.18760893E-19
  0.239999995       7.44105933E-19
  0.240999997       9.69477185E-19
  0.241999999       1.18392210E-18
  0.243000001       1.37533738E-18
  0.244000003       1.53089346E-18
  0.245000005       1.63755850E-18
  0.246000007       1.68270984E-18
  0.246999994       1.65481535E-18
  0.247999996       1.54416060E-18
  0.248999998       1.34359216E-18
  0.250000000       1.04924200E-18
  0.250999987       6.61194622E-19
  0.252000004       1.84056165E-19
  0.252999991      -3.72618008E-19
  0.254000008      -9.94076399E-19
  0.254999995      -1.66034412E-18
  0.256000012      -2.34644546E-18
  0.256999999      -3.02290136E-18
  0.257999986      -3.65651467E-18
  0.259000003      -4.21144326E-18
  0.259999990      -4.65054878E-18
  0.261000007      -4.93699233E-18
  0.261999995      -5.03603149E-18
  0.263000011      -4.91696091E-18
  0.263999999      -4.55511902E-18
  0.264999986      -3.93387288E-18
  0.266000003      -3.04648469E-18
  0.266999990      -1.89775168E-18
  0.268000007      -5.05312487E-19
  0.268999994       1.09948454E-18
  0.270000011       2.87125309E-18
  0.270999998       4.75086180E-18
  0.272000015       6.66641482E-18
  0.273000002       8.53496206E-18
  0.273999989       1.02649466E-17
  0.275000006       1.17593683E-17
  0.275999993       1.29196016E-17
  0.277000010       1.36497697E-17
  0.277999997       1.38615337E-17
  0.279000014       1.34791298E-17
  0.280000001       1.24444294E-17
  0.280999988       1.07218109E-17
  0.282000005       8.30257559E-18
  0.282999992       5.20864878E-18
  0.284000009       1.49531156E-18
  0.284999996      -2.74728643E-18
  0.286000013      -7.39404342E-18
  0.287000000      -1.22864213E-17
  0.287999988      -1.72356911E-17
  0.289000005      -2.20279372E-17
  0.289999992      -2.64308161E-17
  0.291000009      -3.02019391E-17
  0.291999996      -3.30986793E-17
  0.293000013      -3.48891514E-17
  0.294000000      -3.53639167E-17
  0.294999987      -3.43480297E-17
  0.296000004      -3.17128606E-17
  0.296999991      -2.73871626E-17
  0.298000008      -2.13667634E-17
  0.298999995      -1.37222944E-17
  0.300000012      -4.60439335E-18
  0.300999999       5.75413221E-18
  0.301999986       1.70396212E-17
  0.303000003       2.88626675E-17
  0.303999990       4.07671796E-17
  0.305000007       5.22434437E-17
  0.305999994       6.27449780E-17
  0.307000011       7.17088299E-17
  0.307999998       7.85787965E-17
  0.308999985       8.28307563E-17
  0.310000002       8.39992515E-17
  0.310999990       8.17042158E-17
  0.312000006       7.56766631E-17
  0.312999994       6.57820875E-17
  0.314000010       5.20402881E-17
  0.314999998       3.46403454E-17
  0.316000015       1.39495987E-17
  0.317000002      -9.48434620E-18
  0.317999989      -3.49394275E-17
  0.319000006      -6.15332114E-17
  0.319999993      -8.82454608E-17
  0.321000010      -1.13949000E-16
  0.321999997      -1.37448328E-16
  0.323000014      -1.57524994E-16
  0.324000001      -1.72988374E-16
  0.324999988      -1.82730087E-16
  0.326000005      -1.85780027E-16
  0.326999992      -1.81361626E-16
  0.328000009      -1.68943818E-16
  0.328999996      -1.48287186E-16
  0.330000013      -1.19481607E-16
  0.331000000      -8.29730182E-17
  0.331999987      -3.95770321E-17
  0.333000004       9.52225009E-18
  0.333999991       6.27896921E-17
  0.335000008       1.18373357E-16
  0.335999995       1.74155691E-16
  0.337000012       2.27820708E-16
  0.338000000       2.76935807E-16
  0.338999987       3.19045918E-16
  0.340000004       3.51776674E-16
  0.340999991       3.72943127E-16
  0.342000008       3.80659624E-16
  0.342999995       3.73446027E-16
  0.344000012       3.50325468E-16
  0.344999999       3.10908499E-16
  0.345999986       2.55458916E-16
  0.347000003       1.84936780E-16
  0.347999990       1.01014913E-16
  0.349000007       6.06598344E-18
  0.349999994      -9.68817227E-17
  0.351000011      -2.04220464E-16
  0.351999998      -3.11870199E-16
  0.352999985      -4.15414656E-16
  0.354000002      -5.10262812E-16
  0.354999989      -5.91830391E-16
  0.356000006      -6.55735162E-16
  0.356999993      -6.97998930E-16
  0.358000010      -7.15247273E-16
  0.358999997      -7.04898489E-16
  0.360000014      -6.65332733E-16
  0.361000001      -5.96032362E-16
  0.361999989      -4.97685167E-16
  0.363000005      -3.72243187E-16
  0.363999993      -2.22931343E-16
  0.365000010      -5.42018699E-17
  0.365999997       1.28367592E-16
  0.367000014       3.18231734E-16
  0.368000001       5.08088266E-16
  0.368999988       6.90136240E-16
  0.370000005       8.56373921E-16
  0.370999992       9.98925860E-16
  0.372000009       1.11038724E-15
  0.372999996       1.18417133E-15
  0.374000013       1.21484483E-15
  0.375000000       1.19843611E-15
  0.375999987       1.13270042E-15
  0.377000004       1.01732765E-15
  0.377999991       8.54079732E-16
  0.379000008       6.46846875E-16
  0.379999995       4.01614902E-16
  0.381000012       1.26338762E-16
  0.381999999      -1.69277668E-16
  0.382999986      -4.74092229E-16
  0.384000003      -7.75917914E-16
  0.384999990      -1.06198651E-15
  0.386000007      -1.31946642E-15
  0.386999995      -1.53601590E-15
  0.388000011      -1.70034834E-15
  0.388999999      -1.80278575E-15
  0.389999986      -1.83577472E-15
  0.391000003      -1.79434083E-15
  0.391999990      -1.67645449E-15
  0.393000007      -1.48328926E-15
  0.393999994      -1.21935337E-15
  0.395000011      -8.92480077E-16
  0.395999998      -5.13669896E-16
  0.397000015      -9.67814949E-17
  0.398000002       3.41923404E-16
  0.398999989       7.84369344E-16
  0.400000006       1.21137242E-15
  0.400999993       1.60343707E-15
  0.402000010       1.94161318E-15
  0.402999997       2.20837858E-15
  0.404000014       2.38850819E-15
  0.405000001       2.46989048E-15
  0.405999988       2.44424973E-15
  0.407000005       2.30773534E-15
  0.407999992       2.06134489E-15
  0.409000009       1.71115013E-15
  0.409999996       1.26830425E-15
  0.411000013       7.48817677E-16
  0.412000000       1.73096874E-16
  0.412999988      -4.34745563E-16
  0.414000005      -1.04779161E-15
  0.414999992      -1.63740172E-15
  0.416000009      -2.17444284E-15
  0.416999996      -2.63061138E-15
  0.418000013      -2.97979902E-15
  0.419000000      -3.19943826E-15
  0.419999987      -3.27176598E-15
  0.421000004      -3.18494193E-15
  0.421999991      -2.93396098E-15
  0.423000008      -2.52130516E-15
  0.423999995      -1.95728879E-15
  0.425000012      -1.26006220E-15
  0.425999999      -4.55254586E-16
  0.426999986       4.24753909E-16
  0.428000003       1.34191692E-15
  0.428999990       2.25393646E-15
  0.430000007       3.11596443E-15
  0.430999994       3.88252840E-15
  0.432000011       4.50960892E-15
  0.432999998       4.95678302E-15
  0.433999985       5.18933888E-15
  0.435000002       5.18026377E-15
  0.435999990       4.91200717E-15
  0.437000006       4.37792325E-15
  0.437999994       3.58330893E-15
  0.439000010       2.54596399E-15
  0.439999998       1.29621812E-15
  0.441000015      -1.23609106E-16
  0.442000002      -1.66032582E-15
  0.442999989      -3.25154900E-15
  0.444000006      -4.82790865E-15
  0.444999993      -6.31570805E-15
  0.446000010      -7.63994665E-15
  0.446999997      -8.72759879E-15
  0.448000014      -9.51100940E-15
  0.449000001      -9.93126734E-15
  0.449999988      -9.94140717E-15
  0.451000005      -9.50928060E-15
  0.451999992      -8.61995700E-15
  0.453000009      -7.27751650E-15
  0.453999996      -5.50611734E-15
  0.455000013      -3.35025205E-15
  0.456000000      -8.74133237E-16
  0.456999987       1.83981634E-15
  0.458000004       4.69335577E-15
  0.458999991       7.57564669E-15
  0.460000008       1.03672072E-14
  0.460999995       1.29444769E-14
  0.462000012       1.51848189E-14
  0.463000000       1.69717772E-14
  0.463999987       1.82003748E-14
  0.465000004       1.87822204E-14
  0.465999991       1.86502052E-14
  0.467000008       1.77625655E-14
  0.467999995       1.61060943E-14
  0.469000012       1.36983269E-14
  0.469999999       1.05885581E-14
  0.470999986       6.85758298E-15
  0.472000003       2.61610594E-15
  0.472999990      -1.99818079E-15
  0.474000007      -6.82478925E-15
  0.474999994      -1.16857902E-14
  0.476000011      -1.63921594E-14
  0.476999998      -2.07508961E-14
  0.477999985      -2.45726511E-14
  0.479000002      -2.76795781E-14
  0.479999989      -2.99130871E-14
  0.481000006      -3.11411629E-14
  0.481999993      -3.12649449E-14
  0.483000010      -3.02242430E-14
  0.483999997      -2.80017369E-14
  0.485000014      -2.46255991E-14
  0.486000001      -2.01703905E-14
  0.486999989      -1.47561152E-14
  0.488000005      -8.54538845E-15
  0.488999993      -1.73876954E-15
  0.490000010       5.43163139E-15
  0.490999997       1.27100750E-14
  0.492000014       1.98263731E-14
  0.493000001       2.65059987E-14
  0.493999988       3.24807591E-14
  0.495000005       3.74996021E-14
  0.495999992       4.13391143E-14
  0.497000009       4.38133077E-14
  0.497999996       4.47822186E-14
  0.499000013       4.41589683E-14
  0.500000000       4.19149341E-14
  0.500999987       3.80827504E-14
  0.501999974       3.27569630E-14
  0.503000021       2.60922197E-14
  0.504000008       1.82990118E-14
  0.504999995       9.63705468E-15
  0.505999982       4.06505087E-16
  0.507000029      -9.06267994E-15
  0.508000016      -1.84228785E-14
  0.509000003      -2.73219642E-14
  0.509999990      -3.54170090E-14
  0.510999978      -4.23879580E-14
  0.512000024      -4.79507452E-14
  0.513000011      -5.18692890E-14
  0.513999999      -5.39658616E-14
  0.514999986      -5.41293559E-14
  0.515999973      -5.23210795E-14
  0.517000020      -4.85777732E-14
  0.518000007      -4.30116825E-14
  0.518999994      -3.58075792E-14
  0.519999981      -2.72168254E-14
  0.521000028      -1.75486219E-14
  0.522000015      -7.15878366E-15
  0.523000002       3.56360229E-15
  0.523999989       1.42111054E-14
  0.524999976       2.43738948E-14
  0.526000023       3.36560579E-14
  0.527000010       4.16916528E-14
  0.527999997       4.81598200E-14
  0.528999984       5.27983215E-14
  0.529999971       5.54149147E-14
  0.531000018       5.58960667E-14
  0.532000005       5.42126023E-14
  0.532999992       5.04219909E-14
  0.533999979       4.46671305E-14
  0.535000026       3.71716174E-14
  0.536000013       2.82316268E-14
  0.537000000       1.82046947E-14
  0.537999988       7.49580706E-15
  0.538999975      -3.45867481E-15
  0.540000021      -1.42086211E-14
  0.541000009      -2.43085733E-14
  0.541999996      -3.33362590E-14
  0.542999983      -4.09104276E-14
  0.544000030      -4.67072500E-14
  0.545000017      -5.04745747E-14
  0.546000004      -5.20434153E-14
  0.546999991      -5.13361529E-14
  0.547999978      -4.83710531E-14
  0.549000025      -4.32628380E-14
  0.550000012      -3.62192406E-14
  0.550999999      -2.75336140E-14
  0.551999986      -1.75738178E-14
  0.552999973      -6.76778817E-15
  0.554000020       4.41365321E-15
  0.555000007       1.54761000E-14
  0.555999994       2.59222084E-14
  0.556999981       3.52728473E-14
  0.558000028       4.30878952E-14
  0.559000015       4.89857958E-14
  0.560000002       5.26610446E-14
  0.560999990       5.38988511E-14
  0.561999977       5.25862889E-14
  0.563000023       4.87194141E-14
  0.564000010       4.24059862E-14
  0.564999998       3.38635742E-14
  0.565999985       2.34130071E-14
  0.566999972       1.14673692E-14
  0.568000019      -1.48310556E-15
  0.569000006      -1.48897330E-14
  0.569999993      -2.81669812E-14
  0.570999980      -4.07161487E-14
  0.572000027      -5.19502078E-14
  0.573000014      -6.13188360E-14
  0.574000001      -6.83325941E-14
  0.574999988      -7.25852822E-14
  0.575999975      -7.37735136E-14
  0.577000022      -7.17126418E-14
  0.578000009      -6.63483076E-14
  0.578999996      -5.77630120E-14
  0.579999983      -4.61773631E-14
  0.580999970      -3.19457832E-14
  0.582000017      -1.55466900E-14
  0.583000004       2.43260409E-15
  0.583999991       2.13157942E-14
  0.584999979       4.03616553E-14
  0.586000025       5.87914727E-14
  0.587000012       7.58188136E-14
  0.588000000       9.06805216E-14
  0.588999987       1.02667854E-13
  0.589999974       1.11156439E-13
  0.591000021       1.15633970E-13
  0.592000008       1.15724433E-13
  0.592999995       1.11207843E-13
  0.593999982       1.02034612E-13
  0.595000029       8.83338744E-14
  0.596000016       7.04152448E-14
  0.597000003       4.87637545E-14
  0.597999990       2.40279801E-14
  0.598999977      -2.99842718E-15
  0.600000024      -3.14012664E-14
  0.601000011      -6.01756397E-14
  0.601999998      -8.82601690E-14
  0.602999985      -1.14574433E-13
  0.603999972      -1.38058334E-13
  0.605000019      -1.57711992E-13
  0.606000006      -1.72634693E-13
  0.606999993      -1.82061451E-13
  0.607999980      -1.85395793E-13
  0.609000027      -1.82237404E-13
  0.610000014      -1.72403555E-13
  0.611000001      -1.55943292E-13
  0.611999989      -1.33143740E-13
  0.612999976      -1.04528040E-13
  0.614000022      -7.08447651E-14
  0.615000010      -3.30489894E-14
  0.615999997       7.72455762E-15
  0.616999984       5.01954706E-14
  0.617999971       9.29777427E-14
  0.619000018       1.34624733E-13
  0.620000005       1.73677438E-13
  0.620999992       2.08714610E-13
  0.621999979       2.38402776E-13
  0.623000026       2.61544611E-13
  0.624000013       2.77123756E-13
  0.625000000       2.84344542E-13
  0.625999987       2.82665086E-13
  0.626999974       2.71822360E-13
  0.628000021       2.51848428E-13
  0.629000008       2.23076914E-13
  0.629999995       1.86139298E-13
  0.630999982       1.41951013E-13
  0.632000029       9.16877251E-14
  0.633000016       3.67523259E-14
  0.634000003      -2.12663715E-14
  0.634999990      -8.06418734E-14
  0.635999978      -1.39563708E-13
  0.637000024      -1.96194759E-13
  0.638000011      -2.48730425E-13
  0.638999999      -2.95457452E-13
  0.639999986      -3.34810548E-13
  0.640999973      -3.65424867E-13
  0.642000020      -3.86182460E-13
  0.643000007      -3.96251012E-13
  0.643999994      -3.95113711E-13
  0.644999981      -3.82588980E-13
  0.646000028      -3.58839315E-13
  0.647000015      -3.24369356E-13
  0.648000002      -2.80012450E-13
  0.648999989      -2.26906777E-13
  0.649999976      -1.66461598E-13
  0.651000023      -1.00314796E-13
  0.652000010      -3.02830711E-14
  0.652999997       4.16934790E-14
  0.653999984       1.13610483E-13
  0.654999971       1.83460181E-13
  0.656000018       2.49292069E-13
  0.657000005       3.09271190E-13
  0.657999992       3.61732345E-13
  0.658999979       4.05228422E-13
  0.660000026       4.38571244E-13
  0.661000013       4.60863823E-13
  0.662000000       4.71523157E-13
  0.662999988       4.70292858E-13
  0.663999975       4.57245678E-13
  0.665000021       4.32775831E-13
  0.666000009       3.97581707E-13
  0.666999996       3.52639874E-13
  0.667999983       2.99171414E-13
  0.669000030       2.38601890E-13
  0.670000017       1.72516596E-13
  0.671000004       1.02612444E-13
  0.671999991       3.06484269E-14
  0.672999978      -4.16039985E-14
  0.674000025      -1.12408794E-13
  0.675000012      -1.80110199E-13
  0.675999999      -2.43173266E-13
  0.676999986      -3.00219132E-13
  0.677999973      -3.50054133E-13
  0.679000020      -3.91692294E-13
  0.680000007      -4.24371015E-13
  0.680999994      -4.47559768E-13
  0.681999981      -4.60962160E-13
  0.683000028      -4.64512001E-13
  0.684000015      -4.58363382E-13
  0.685000002      -4.42876313E-13
  0.685999990      -4.18598126E-13
  0.686999977      -3.86241955E-13
  0.688000023      -3.46662857E-13
  0.689000010      -3.00832655E-13
  0.689999998      -2.49814194E-13
  0.690999985      -1.94735802E-13
  0.691999972      -1.36766331E-13
  0.693000019      -7.70914636E-14
  0.694000006      -1.68914192E-14
  0.694999993       4.26796422E-14
  0.695999980       1.00512392E-13
  0.697000027       1.55559363E-13
  0.698000014       2.06850189E-13
  0.699000001       2.53505279E-13
  0.699999988       2.94747760E-13
  0.700999975       3.29914047E-13
  0.702000022       3.58463069E-13
  0.703000009       3.79983805E-13
  0.703999996       3.94201382E-13
  0.704999983       4.00981684E-13
  0.705999970       4.00333846E-13
  0.707000017       3.92410713E-13
  0.708000004       3.77506999E-13
  0.708999991       3.56054731E-13
  0.709999979       3.28615770E-13
  0.711000025       2.95871211E-13
  0.712000012       2.58607643E-13
  0.713000000       2.17700058E-13
  0.713999987       1.74091725E-13
  0.714999974       1.28771424E-13
  0.716000021       8.27482343E-14
  0.717000008       3.70247012E-14
  0.717999995      -7.43086589E-15
  0.718999982      -4.97121943E-14
  0.720000029      -8.90016956E-14
  0.721000016      -1.24595023E-13
  0.722000003      -1.55922625E-13
  0.722999990      -1.82566934E-13
  0.723999977      -2.04274477E-13
  0.725000024      -2.20962151E-13
  0.726000011      -2.32717003E-13
  0.726999998      -2.39789227E-13
  0.727999985      -2.42578310E-13
  0.728999972      -2.41612801E-13
  0.730000019      -2.37524112E-13
  0.731000006      -2.31015185E-13
  0.731999993      -2.22825515E-13
  0.732999980      -2.13693822E-13
  0.734000027      -2.04319878E-13
  0.735000014      -1.95327356E-13
  0.736000001      -1.87229653E-13
  0.736999989      -1.80400183E-13
  0.737999976      -1.75048927E-13
  0.739000022      -1.71206473E-13
  0.740000010      -1.68716915E-13
  0.740999997      -1.67240204E-13
  0.741999984      -1.66264409E-13
  0.742999971      -1.65127609E-13
  0.744000018      -1.63048747E-13
  0.745000005      -1.59166828E-13
  0.745999992      -1.52586399E-13
  0.746999979      -1.42427682E-13
  0.748000026      -1.27879180E-13
  0.749000013      -1.08250248E-13
  0.750000000      -8.30211347E-14
  0.750999987      -5.18876798E-14
  0.751999974      -1.47986888E-14
  0.753000021       2.80164872E-14
  0.754000008       7.60321439E-14
  0.754999995       1.28423205E-13
  0.755999982       1.84076035E-13
  0.757000029       2.41613207E-13
  0.758000016       2.99432137E-13
  0.759000003       3.55755898E-13
  0.759999990       4.08695078E-13
  0.760999978       4.56318306E-13
  0.762000024       4.96728526E-13
  0.763000011       5.28141875E-13
  0.763999999       5.48966092E-13
  0.764999986       5.57874873E-13
  0.765999973       5.53874492E-13
  0.767000020       5.36359802E-13
  0.768000007       5.05156572E-13
  0.768999994       4.60547941E-13
  0.769999981       4.03283201E-13
  0.771000028       3.34568365E-13
  0.772000015       2.56037135E-13
  0.773000002       1.69704108E-13
  0.773999989       7.79012475E-14
  0.774999976      -1.68003801E-14
  0.776000023      -1.11680440E-13
  0.777000010      -2.03967431E-13
  0.777999997      -2.90941316E-13
  0.778999984      -3.70035843E-13
  0.779999971      -4.38936783E-13
  0.781000018      -4.95672026E-13
  0.782000005      -5.38688994E-13
  0.782999992      -5.66916522E-13
  0.783999979      -5.79808228E-13
  0.785000026      -5.77364762E-13
  0.786000013      -5.60134513E-13
  0.787000000      -5.29191816E-13
  0.787999988      -4.86093696E-13
  0.788999975      -4.32816543E-13
  0.790000021      -3.71675103E-13
  0.791000009      -3.05227306E-13
  0.791999996      -2.36168588E-13
  0.792999983      -1.67220214E-13
  0.794000030      -1.01016356E-13
  0.795000017      -3.99943716E-14
  0.796000004       1.37065415E-14
  0.796999991       5.83343053E-14
  0.797999978       9.25965847E-14
  0.799000025       1.15713767E-13
  0.800000012       1.27450161E-13
  0.800999999       1.28121255E-13
  0.801999986       1.18577782E-13
  0.802999973       1.00166376E-13
  0.804000020       7.46681498E-14
  0.805000007       4.42180675E-14
  0.805999994       1.12085837E-14
  0.806999981      -2.18185912E-14
  0.808000028      -5.22884551E-14
  0.809000015      -7.77107328E-14
  0.810000002      -9.57959298E-14
  0.810999990      -1.04563859E-13
  0.811999977      -1.02439948E-13
  0.813000023      -8.83357650E-14
  0.814000010      -6.17100229E-14
  0.814999998      -2.26070553E-14
  0.815999985       2.83284426E-14
  0.816999972       8.98614001E-14
  0.818000019       1.60201157E-13
  0.819000006       2.37059396E-13
  0.819999993       3.17729187E-13
  0.820999980       3.99182233E-13
  0.822000027       4.78180809E-13
  0.823000014       5.51399584E-13
  0.824000001       6.15552856E-13
  0.824999988       6.67523166E-13
  0.825999975       7.04485027E-13
  0.827000022       7.24019586E-13
  0.828000009       7.24216748E-13
  0.828999996       7.03759316E-13
  0.829999983       6.61987555E-13
  0.830999970       5.98941198E-13
  0.832000017       5.15376370E-13
  0.833000004       4.12758098E-13
  0.833999991       2.93228468E-13
  0.834999979       1.59550704E-13
  0.836000025       1.50319278E-14
  0.837000012      -1.36573167E-13
  0.838000000      -2.91174582E-13
  0.838999987      -4.44470930E-13
  0.839999974      -5.92081343E-13
  0.841000021      -7.29680801E-13
  0.842000008      -8.53134729E-13
  0.842999995      -9.58627817E-13
  0.843999982      -1.04278370E-12
  0.845000029      -1.10277163E-12
  0.846000016      -1.13639621E-12
  0.847000003      -1.14216872E-12
  0.847999990      -1.11935645E-12
  0.848999977      -1.06800929E-12
  0.850000024      -9.88962926E-13
  0.851000011      -8.83818409E-13
  0.851999998      -7.54899019E-13
  0.852999985      -6.05184956E-13
  0.853999972      -4.38228609E-13
  0.855000019      -2.58052856E-13
  0.856000006      -6.90350487E-14