   0.00000000       0.00000000    
   1.00000005E-03   0.00000000    
   2.00000009E-03   0.00000000    
   3.00000003E-03   0.00000000    
   4.00000019E-03   0.00000000    
   4.99999989E-03   0.00000000    
   6.00000005E-03   0.00000000    
   7.00000022E-03   0.00000000    
   8.00000038E-03   0.00000000    
   8.99999961E-03   0.00000000    
   9.99999978E-03   0.00000000    
   1.09999999E-02   0.00000000    
   1.20000001E-02   0.00000000    
   1.30000003E-02   0.00000000    
   1.40000004E-02  -5.28325731E-38
   1.49999997E-02  -2.99447617E-37
   1.60000008E-02  -1.27380613E-36
   1.70000009E-02  -4.66874479E-36
   1.79999992E-02  -1.54292415E-35
   1.89999994E-02  -4.68099558E-35
   1.99999996E-02  -1.31803154E-34
   2.09999997E-02  -3.47440039E-34
   2.19999999E-02  -8.63499140E-34
   2.30000000E-02  -2.03465197E-33
   2.40000002E-02  -4.56599181E-33
   2.50000004E-02  -9.79638478E-33
   2.60000005E-02  -2.01604496E-32
   2.70000007E-02  -3.99056411E-32
   2.80000009E-02  -7.61494703E-32
   2.89999992E-02  -1.40352180E-31
   2.99999993E-02  -2.50235194E-31
   3.09999995E-02  -4.32071051E-31
   3.20000015E-02  -7.23073659E-31
   3.29999998E-02  -1.17329044E-30
   3.40000018E-02  -1.84589872E-30
   3.50000001E-02  -2.81409661E-30
   3.59999985E-02  -4.15183439E-30
   3.70000005E-02  -5.91445939E-30
   3.79999988E-02  -8.10399422E-30
   3.90000008E-02  -1.06123999E-29
   3.99999991E-02  -1.31349701E-29
   4.10000011E-02  -1.50453888E-29
   4.19999994E-02  -1.52244341E-29
   4.30000015E-02  -1.18365074E-29
   4.39999998E-02  -2.05288747E-30
   4.50000018E-02   1.82711740E-29
   4.60000001E-02   5.49459026E-29
   4.69999984E-02   1.15785741E-28
   4.80000004E-02   2.10877003E-28
   4.89999987E-02   3.52685632E-28
   5.00000007E-02   5.55883278E-28
   5.09999990E-02   8.36735672E-28
   5.20000011E-02   1.21186291E-27
   5.29999994E-02   1.69615745E-27
   5.40000014E-02   2.29963238E-27
   5.49999997E-02   3.02298721E-27
   5.60000017E-02   3.85172430E-27
   5.70000000E-02   4.74874582E-27
   5.79999983E-02   5.64551427E-27
   5.90000004E-02   6.43207523E-27
   5.99999987E-02   6.94654350E-27
   6.10000007E-02   6.96501779E-27
   6.19999990E-02   6.19332463E-27
   6.30000010E-02   4.26246969E-27
   6.40000030E-02   7.30162894E-28
   6.49999976E-02  -4.90877558E-27
   6.59999996E-02  -1.31999818E-26
   6.70000017E-02  -2.46918193E-26
   6.80000037E-02  -3.98792330E-26
   6.89999983E-02  -5.91266594E-26
   7.00000003E-02  -8.25685240E-26
   7.10000023E-02  -1.09987610E-25
   7.19999969E-02  -1.40673941E-25
   7.29999989E-02  -1.73269859E-25
   7.40000010E-02  -2.05611061E-25
   7.50000030E-02  -2.34577306E-25
   7.59999976E-02  -2.55971583E-25
   7.69999996E-02  -2.64451222E-25
   7.80000016E-02  -2.53538440E-25
   7.90000036E-02  -2.15741600E-25
   7.99999982E-02  -1.42819643E-25
   8.10000002E-02  -2.62213482E-26
   8.20000023E-02   1.42273123E-25
   8.29999968E-02   3.69689260E-25
   8.39999989E-02   6.60767989E-25
   8.50000009E-02   1.01666047E-24
   8.60000029E-02   1.43344428E-24
   8.69999975E-02   1.90052626E-24
   8.79999995E-02   2.39902876E-24
   8.90000015E-02   2.90029780E-24
   9.00000036E-02   3.36469647E-24
   9.09999982E-02   3.74089477E-24
   9.20000002E-02   3.96588500E-24
   9.30000022E-02   3.96597020E-24
   9.39999968E-02   3.65897866E-24
   9.49999988E-02   2.95793159E-24
   9.60000008E-02   1.77635521E-24
   9.70000029E-02   3.53439761E-26
   9.79999974E-02  -2.32761595E-24
   9.89999995E-02  -5.34819965E-24
  0.100000001      -9.02348171E-24
  0.101000004      -1.32993634E-23
  0.101999998      -1.80579302E-23
  0.103000000      -2.31056838E-23
  0.104000002      -2.81638458E-23
  0.104999997      -3.28621057E-23
  0.105999999      -3.67373312E-23
  0.107000001      -3.92388502E-23
  0.108000003      -3.97418784E-23
  0.108999997      -3.75704725E-23
  0.109999999      -3.20311575E-23
  0.111000001      -2.24577924E-23
  0.112000003      -8.26773403E-24
  0.112999998       1.09716447E-23
  0.114000000       3.54678868E-23
  0.115000002       6.51228343E-23
  0.115999997       9.94506404E-23
  0.116999999       1.37499869E-22
  0.118000001       1.77786264E-22
  0.119000003       2.18243759E-22
  0.119999997       2.56202130E-22
  0.120999999       2.88399898E-22
  0.122000001       3.11040837E-22
  0.123000003       3.19901929E-22
  0.123999998       3.10498707E-22
  0.125000000       2.78311516E-22
  0.126000002       2.19073388E-22
  0.127000004       1.29116007E-22
  0.128000006       5.76519587E-24
  0.128999993      -1.52227461E-22
  0.129999995      -3.44236205E-22
  0.130999997      -5.67321197E-22
  0.131999999      -8.15827124E-22
  0.133000001      -1.08105640E-21
  0.134000003      -1.35105453E-21
  0.135000005      -1.61054842E-21
  0.136000007      -1.84107907E-21
  0.136999995      -2.02136244E-21
  0.137999997      -2.12791142E-21
  0.138999999      -2.13594049E-21
  0.140000001      -2.02055788E-21
  0.141000003      -1.75824126E-21
  0.142000005      -1.32856637E-21
  0.143000007      -7.16141511E-22
  0.143999994       8.73251856E-23
  0.144999996       1.08092150E-21
  0.145999998       2.25250772E-21
  0.147000000       3.57691355E-21
  0.148000002       5.01450822E-21
  0.149000004       6.51030845E-21
  0.150000006       7.99378862E-21
  0.150999993       9.37955202E-21
  0.151999995       1.05689990E-20
  0.152999997       1.14530999E-20
  0.153999999       1.19163356E-20
  0.155000001       1.18418175E-20
  0.156000003       1.11175199E-20
  0.157000005       9.64349615E-21
  0.158000007       7.33986115E-21
  0.158999994       4.15523276E-21
  0.159999996       7.52471320E-23
  0.160999998      -4.86931177E-21
  0.162000000      -1.05953023E-20
  0.163000003      -1.69615049E-20
  0.164000005      -2.37649782E-20
  0.165000007      -3.07400995E-20
  0.165999994      -3.75608047E-20
  0.166999996      -4.38464920E-20
  0.167999998      -4.91719583E-20
  0.169000000      -5.30815047E-20
  0.170000002      -5.51071989E-20
  0.171000004      -5.47910738E-20
  0.172000006      -5.17106919E-20
  0.172999993      -4.55073543E-20
  0.173999995      -3.59158462E-20
  0.174999997      -2.27944530E-20
  0.175999999      -6.15366315E-21
  0.177000001       1.38181442E-20
  0.178000003       3.67338922E-20
  0.179000005       6.19937554E-20
  0.180000007       8.87796860E-20
  0.180999994       1.16060187E-19
  0.181999996       1.42606726E-19
  0.182999998       1.67022758E-19
  0.184000000       1.87785819E-19
  0.185000002       2.03302641E-19
  0.186000004       2.11976354E-19
  0.187000006       2.12284246E-19
  0.187999994       2.02863796E-19
  0.188999996       1.82603700E-19
  0.189999998       1.50736141E-19
  0.191000000       1.06925922E-19
  0.192000002       5.13513110E-20
  0.193000004      -1.52283886E-20
  0.194000006      -9.14239756E-20
  0.194999993      -1.75191167E-19
  0.195999995      -2.63833651E-19
  0.196999997      -3.54038265E-19
  0.197999999      -4.41944662E-19
  0.199000001      -5.23250984E-19
  0.200000003      -5.93355368E-19
  0.201000005      -6.47530322E-19
  0.202000007      -6.81126883E-19
  0.202999994      -6.89801578E-19
  0.203999996      -6.69758836E-19
  0.204999998      -6.17998578E-19
  0.206000000      -5.32557697E-19
  0.207000002      -4.12733657E-19
  0.208000004      -2.59276454E-19
  0.209000006      -7.45363338E-20
  0.209999993       1.37445106E-19
  0.210999995       3.70911845E-19
  0.211999997       6.18447272E-19
  0.213000000       8.71111451E-19
  0.214000002       1.11866510E-18
  0.215000004       1.34987925E-18
  0.216000006       1.55292582E-18
  0.216999993       1.71584018E-18
  0.217999995       1.82704076E-18
  0.218999997       1.87588888E-18
  0.219999999       1.85326652E-18
  0.221000001       1.75214597E-18
  0.222000003       1.56812423E-18
  0.223000005       1.29989603E-18
  0.224000007       9.49632812E-19
  0.224999994       5.23244108E-19
  0.225999996       3.04964496E-20
  0.226999998      -5.15030774E-19
  0.228000000      -1.09616465E-18
  0.229000002      -1.69254099E-18
  0.230000004      -2.28118753E-18
  0.231000006      -2.83727913E-18
  0.231999993      -3.33504437E-18
  0.232999995      -3.74879618E-18
  0.233999997      -4.05405189E-18
  0.234999999      -4.22869370E-18
  0.236000001      -4.25412868E-18
  0.237000003      -4.11638656E-18
  0.238000005      -3.80710332E-18
  0.238999993      -3.32433755E-18
  0.239999995      -2.67316671E-18
  0.240999997      -1.86601834E-18
  0.241999999      -9.22701775E-19
  0.243000001       1.29883951E-19
  0.244000003       1.25837829E-18
  0.245000005       2.42391795E-18
  0.246000007       3.58340721E-18
  0.246999994       4.69106119E-18
  0.247999996       5.70017481E-18
  0.248999998       6.56504466E-18
  0.250000000       7.24297377E-18
  0.250999987       7.69626461E-18
  0.252000004       7.89411132E-18
  0.252999991       7.81429915E-18
  0.254000008       7.44461807E-18
  0.254999995       6.78390673E-18
  0.256000012       5.84266659E-18
  0.256999999       4.64317943E-18
  0.257999986       3.21910777E-18
  0.259000003       1.61456350E-18
  0.259999990      -1.17334924E-19
  0.261000007      -1.91637627E-18
  0.261999995      -3.71757136E-18
  0.263000011      -5.45377921E-18
  0.263999999      -7.05852655E-18
  0.264999986      -8.46890507E-18
  0.266000003      -9.62839308E-18
  0.266999990      -1.04894749E-17
  0.268000007      -1.10159108E-17
  0.268999994      -1.11845382E-17
  0.270000011      -1.09864971E-17
  0.270999998      -1.04277870E-17
  0.272000015      -9.52912231E-18
  0.273000002      -8.32504926E-18
  0.273999989      -6.86236522E-18
  0.275000006      -5.19789006E-18
  0.275999993      -3.39569201E-18
  0.277000010      -1.52390243E-18
  0.277999997       3.48720890E-19
  0.279000014       2.15629566E-18
  0.280000001       3.83918759E-18
  0.280999988       5.34705430E-18
  0.282000005       6.64137565E-18
  0.282999992       7.69729528E-18
  0.284000009       8.50464423E-18
  0.284999996       9.06804936E-18
  0.286000013       9.40608002E-18
  0.287000000       9.54944366E-18
  0.287999988       9.53830567E-18
  0.289000005       9.41884838E-18
  0.289999992       9.23926747E-18
  0.291000009       9.04542762E-18
  0.291999996       8.87644620E-18
  0.293000013       8.76050360E-18
  0.294000000       8.71117552E-18
  0.294999987       8.72458825E-18
  0.296000004       8.77765271E-18
  0.296999991       8.82760532E-18
  0.298000008       8.81300724E-18
  0.298999995       8.65629291E-18
  0.300000012       8.26783731E-18
  0.300999999       7.55145506E-18
  0.301999986       6.41112124E-18
  0.303000003       4.75860463E-18
  0.303999990       2.52163611E-18
  0.305000007      -3.47853436E-19
  0.305999994      -3.86593530E-18
  0.307000011      -8.00986367E-18
  0.307999998      -1.27127676E-17
  0.308999985      -1.78603647E-17
  0.310000002      -2.32901155E-17
  0.310999990      -2.87931810E-17
  0.312000006      -3.41193838E-17
  0.312999994      -3.89852076E-17
  0.314000010      -4.30847974E-17
  0.314999998      -4.61036096E-17
  0.316000015      -4.77342737E-17
  0.317000002      -4.76940264E-17
  0.317999989      -4.57429456E-17
  0.319000006      -4.17020293E-17
  0.319999993      -3.54701830E-17
  0.321000010      -2.70390039E-17
  0.321999997      -1.65044072E-17
  0.323000014      -4.07409944E-18
  0.324000001       9.92992027E-18
  0.324999988       2.50744599E-17
  0.326000005       4.08242517E-17
  0.326999992       5.65572171E-17
  0.328000009       7.15856793E-17
  0.328999996       8.51830396E-17
  0.330000013       9.66150330E-17
  0.331000000       1.05174453E-16
  0.331999987       1.10217853E-16
  0.333000004       1.11202588E-16
  0.333999991       1.07722302E-16
  0.335000008       9.95390305E-17
  0.335999995       8.66098203E-17
  0.337000012       6.91062352E-17
  0.338000000       4.74250207E-17
  0.338999987       2.21886964E-17
  0.340000004      -5.76490541E-18
  0.340999991      -3.54044750E-17
  0.342000008      -6.55383868E-17
  0.342999995      -9.48584257E-17
  0.344000012      -1.21992861E-16
  0.344999999      -1.45566953E-16
  0.345999986      -1.64268448E-16
  0.347000003      -1.76915404E-16
  0.347999990      -1.82522961E-16
  0.349000007      -1.80365846E-16
  0.349999994      -1.70033063E-16
  0.351000011      -1.51471567E-16
  0.351999998      -1.25015856E-16
  0.352999985      -9.14008636E-17
  0.354000002      -5.17563700E-17
  0.354999989      -7.58160828E-18
  0.356000006       3.93000358E-17
  0.356999993       8.68056768E-17
  0.358000010       1.32675085E-16
  0.358999997       1.74567786E-16
  0.360000014       2.10171360E-16
  0.361000001       2.37316450E-16
  0.361999989       2.54093526E-16
  0.363000005       2.58965580E-16
  0.363999993       2.50871254E-16
  0.365000010       2.29312121E-16
  0.365999997       1.94419393E-16
  0.367000014       1.46994574E-16
  0.368000001       8.85206869E-17
  0.368999988       2.11410440E-17
  0.370000005      -5.23956846E-17
  0.370999992      -1.28823917E-16
  0.372000009      -2.04481350E-16
  0.372999996      -2.75457391E-16
  0.374000013      -3.37764552E-16
  0.375000000      -3.87526679E-16
  0.375999987      -4.21175566E-16
  0.377000004      -4.35647653E-16
  0.377999991      -4.28571302E-16
  0.379000008      -3.98434531E-16
  0.379999995      -3.44724516E-16
  0.381000012      -2.68029759E-16
  0.381999999      -1.70097557E-16
  0.382999986      -5.38407659E-17
  0.384000003       7.67100036E-17
  0.384999990       2.16510250E-16
  0.386000007       3.59660830E-16
  0.386999995       4.99618731E-16
  0.388000011       6.29453212E-16
  0.388999999       7.42138663E-16
  0.389999986       8.30873041E-16
  0.391000003       8.89408523E-16
  0.391999990       9.12380692E-16
  0.393000007       8.95620239E-16
  0.393999994       8.36432277E-16
  0.395000011       7.33827841E-16
  0.395999998       5.88694198E-16
  0.397000015       4.03892150E-16
  0.398000002       1.84270972E-16
  0.398999989      -6.34048630E-17
  0.400000006      -3.30619617E-16
  0.400999993      -6.07359099E-16
  0.402000010      -8.82447077E-16
  0.402999997      -1.14395474E-15
  0.404000014      -1.37967024E-15
  0.405000001      -1.57761062E-15
  0.405999988      -1.72655607E-15
  0.407000005      -1.81658498E-15
  0.407999992      -1.83958531E-15
  0.409000009      -1.78971794E-15
  0.409999996      -1.66381168E-15
  0.411000013      -1.46166536E-15
  0.412000000      -1.18624074E-15
  0.412999988      -8.43731054E-16
  0.414000005      -4.43495413E-16
  0.414999992       2.14533262E-18
  0.416000009       4.78249943E-16
  0.416999996       9.67727942E-16
  0.418000013       1.45192734E-15
  0.419000000       1.91131883E-15
  0.419999987       2.32625465E-15
  0.421000004       2.67776973E-15
  0.421999991       2.94839696E-15
  0.423000008       3.12295965E-15
  0.423999995       3.18930923E-15
  0.425000012       3.13897260E-15
  0.425999999       2.96767755E-15
  0.426999986       2.67573092E-15
  0.428000003       2.26822358E-15
  0.428999990       1.75504909E-15
  0.430000007       1.15072645E-15
  0.430999994       4.74023989E-16
  0.432000011      -2.52605315E-16
  0.432999998      -1.00376305E-15
  0.433999985      -1.75199522E-15
  0.435000002      -2.46880119E-15
  0.435999990      -3.12572543E-15
  0.437000006      -3.69548913E-15
  0.437999994      -4.15311731E-15
  0.439000010      -4.47701424E-15
  0.439999998      -4.64994195E-15
  0.441000015      -4.65985647E-15
  0.442000002      -4.50056557E-15
  0.442999989      -4.17217132E-15
  0.444000006      -3.68127465E-15
  0.444999993      -3.04092854E-15
  0.446000010      -2.27032718E-15
  0.446999997      -1.39424196E-15
  0.448000014      -4.42217585E-16
  0.449000001       5.52447011E-16
  0.449999988       1.55389507E-15
  0.451000005       2.52504376E-15
  0.451999992       3.42900092E-15
  0.453000009       4.23050860E-15
  0.453999996       4.89736069E-15
  0.455000013       5.40173070E-15
  0.456000000       5.72135858E-15
  0.456999987       5.84054162E-15
  0.458000004       5.75088869E-15
  0.458999991       5.45179755E-15
  0.460000008       4.95063483E-15
  0.460999995       4.26260225E-15
  0.462000012       3.41028975E-15
  0.463000000       2.42292610E-15
  0.463999987       1.33535464E-15
  0.465000004       1.86767271E-16
  0.465999991      -9.80753721E-16
  0.467000008      -2.12383241E-15
  0.467999995      -3.19946981E-15
  0.469000012      -4.16672574E-15
  0.469999999      -4.98834008E-15
  0.470999986      -5.63223081E-15
  0.472000003      -6.07280483E-15
  0.472999990      -6.29202712E-15
  0.474000007      -6.28020254E-15
  0.474999994      -6.03643409E-15
  0.476000011      -5.56873807E-15
  0.476999998      -4.89380612E-15
  0.477999985      -4.03641989E-15
  0.479000002      -3.02854047E-15
  0.479999989      -1.90810561E-15
  0.481000006      -7.17579631E-16
  0.481999993       4.97685484E-16
  0.483000010       1.69121478E-15
  0.483999997       2.81723052E-15
  0.485000014       3.83245351E-15
  0.486000001       4.69781583E-15
  0.486999989       5.38001235E-15
  0.488000005       5.85283122E-15
  0.488999993       6.09820523E-15
  0.490000010       6.10694450E-15
  0.490999997       5.87911847E-15
  0.492000014       5.42406780E-15
  0.493000001       4.76005157E-15
  0.493999988       3.91353616E-15
  0.495000005       2.91815810E-15
  0.495999992       1.81339950E-15
  0.497000009       6.43032050E-16
  0.497999996      -5.46613178E-16
  0.499000013      -1.70847551E-15
  0.500000000      -2.79662497E-15
  0.500999987      -3.76807689E-15
  0.501999974      -4.58448748E-15
  0.503000021      -5.21366863E-15
  0.504000008      -5.63085142E-15
  0.504999995      -5.81965887E-15
  0.505999982      -5.77274383E-15
  0.507000029      -5.49207184E-15
  0.508000016      -4.98883263E-15
  0.509000003      -4.28299118E-15
  0.509999990      -3.40249535E-15
  0.510999978      -2.38216963E-15
  0.512000024      -1.26234485E-15
  0.513000011      -8.72745029E-17
  0.513999999       1.09659606E-15
  0.514999986       2.24244074E-15
  0.515999973       3.30487311E-15
  0.517000020       4.24170383E-15
  0.518000007       5.01556795E-15
  0.518999994       5.59536074E-15
  0.519999981       5.95742582E-15
  0.521000028       6.08645265E-15
  0.522000015       5.97605080E-15
  0.523000002       5.62898286E-15
  0.523999989       5.05704504E-15
  0.524999976       4.28060975E-15
  0.526000023       3.32784485E-15
  0.527000010       2.23364325E-15
  0.527999997       1.03830770E-15
  0.528999984      -2.13960390E-16
  0.529999971      -1.47670761E-15
  0.531000018      -2.70294863E-15
  0.532000005      -3.84689669E-15
  0.532999992      -4.86563804E-15
  0.533999979      -5.72069112E-15
  0.535000026      -6.37939561E-15
  0.536000013      -6.81608006E-15
  0.537000000      -7.01297117E-15
  0.537999988      -6.96081385E-15
  0.538999975      -6.65918245E-15
  0.540000021      -6.11647955E-15
  0.541000009      -5.34962123E-15
  0.541999996      -4.38342769E-15
  0.542999983      -3.24974418E-15
  0.544000030      -1.98632530E-15
  0.545000017      -6.35523156E-16
  0.546000004       7.57169528E-16
  0.546999991       2.14467281E-15
  0.547999978       3.47991459E-15
  0.549000025       4.71741109E-15
  0.550000012       5.81478589E-15
  0.550999999       6.73417070E-15
  0.551999986       7.44345025E-15
  0.552999973       7.91730928E-15
  0.554000020       8.13805115E-15
  0.555000007       8.09616707E-15
  0.555999994       7.79063720E-15
  0.556999981       7.22896457E-15
  0.558000028       6.42693364E-15
  0.559000015       5.40811733E-15
  0.560000002       4.20313884E-15
  0.560999990       2.84872342E-15
  0.561999977       1.38656212E-15
  0.563000023      -1.37968829E-16
  0.564000010      -1.67719988E-15
  0.564999998      -3.18262508E-15
  0.565999985      -4.60638455E-15
  0.566999972      -5.90272612E-15
  0.568000019      -7.02940912E-15
  0.569000006      -7.94900610E-15
  0.569999993      -8.63006803E-15
  0.570999980      -9.04812199E-15
  0.572000027      -9.18647042E-15
  0.573000014      -9.03677598E-15
  0.574000001      -8.59940459E-15
  0.574999988      -7.88352707E-15
  0.575999975      -6.90696754E-15
  0.577000022      -5.69580529E-15
  0.578000009      -4.28373445E-15
  0.578999996      -2.71119936E-15
  0.579999983      -1.02432044E-15
  0.580999970       7.26357804E-16
  0.582000017       2.48727053E-15
  0.583000004       4.20335230E-15
  0.583999991       5.81963346E-15
  0.584999979       7.28287483E-15
  0.586000025       8.54319040E-15
  0.587000012       9.55562516E-15
  0.588000000       1.02816315E-14
  0.588999987       1.06904054E-14
  0.589999974       1.07600467E-14
  0.591000021       1.04784896E-14
  0.592000008       9.84418981E-15
  0.592999995       8.86651643E-15
  0.593999982       7.56584821E-15
  0.595000029       5.97334030E-15
  0.596000016       4.13036813E-15
  0.597000003       2.08764166E-15
  0.597999990      -9.59949520E-17
  0.598999977      -2.35505907E-15
  0.600000024      -4.61918788E-15
  0.601000011      -6.81512121E-15
  0.601999998      -8.86886356E-15
  0.602999985      -1.07079593E-14
  0.603999972      -1.22638301E-14
  0.605000019      -1.34740944E-14
  0.606000006      -1.42848075E-14
  0.606999993      -1.46525350E-14
  0.607999980      -1.45462035E-14
  0.609000027      -1.39486472E-14
  0.610000014      -1.28577857E-14
  0.611000001      -1.12873832E-14
  0.611999989      -9.26733327E-15
  0.612999976      -6.84344938E-15
  0.614000022      -4.07672214E-15
  0.615000010      -1.04205900E-15
  0.615999997       2.17349713E-15
  0.616999984       5.47302800E-15
  0.617999971       8.75243464E-15
  0.619000018       1.19035056E-14
  0.620000005       1.48172659E-14
  0.620999992       1.73875163E-14
  0.621999979       1.95144685E-14
  0.623000026       2.11083304E-14
  0.624000013       2.20927335E-14
  0.625000000       2.24078958E-14
  0.625999987       2.20133732E-14
  0.626999974       2.08902906E-14
  0.628000021       1.90429575E-14
  0.629000008       1.64997834E-14
  0.629999995       1.33134131E-14
  0.630999982       9.56005176E-15
  0.632000029       5.33794827E-15
  0.633000016       7.65067051E-16
  0.634000003      -4.02403034E-15
  0.634999990      -8.88200951E-15
  0.635999978      -1.36532055E-14
  0.637000024      -1.81785451E-14
  0.638000011      -2.23008088E-14
  0.638999999      -2.58700583E-14
  0.639999986      -2.87490504E-14
  0.640999973      -3.08184366E-14
  0.642000020      -3.19815687E-14
  0.643000007      -3.21687054E-14
  0.643999994      -3.13404461E-14
  0.644999981      -2.94902652E-14
  0.646000028      -2.66459608E-14
  0.647000015      -2.28699811E-14
  0.648000002      -1.82585253E-14
  0.648999989      -1.29394100E-14
  0.649999976      -7.06874575E-15
  0.651000023      -8.26477046E-16
  0.652000010       5.58909396E-15
  0.652999997       1.19676379E-14
  0.653999984       1.80937859E-14
  0.654999971       2.37545477E-14
  0.656000018       2.87469057E-14
  0.657000005       3.28853122E-14
  0.657999992       3.60087936E-14
  0.658999979       3.79874422E-14
  0.660000026       3.87279523E-14
  0.661000013       3.81780450E-14
  0.662000000       3.63295074E-14
  0.662999988       3.32197479E-14
  0.663999975       2.89317317E-14
  0.665000021       2.35922376E-14
  0.666000009       1.73684716E-14
  0.666999996       1.04630863E-14
  0.667999983       3.10777659E-15
  0.669000030      -4.44439712E-15
  0.670000017      -1.19276664E-14
  0.671000004      -1.90729187E-14
  0.671999991      -2.56174425E-14
  0.672999978      -3.13146691E-14
  0.674000025      -3.59435856E-14
  0.675000012      -3.93174093E-14
  0.675999999      -4.12912265E-14
  0.676999986      -4.17682280E-14
  0.677999973      -4.07043140E-14
  0.679000020      -3.81108380E-14
  0.680000007      -3.40553290E-14
  0.680999994      -2.86601289E-14
  0.681999981      -2.20989693E-14
  0.683000028      -1.45915181E-14
  0.684000015      -6.39612112E-15
  0.685000002       2.19906524E-15
  0.685999990       1.08862241E-14
  0.686999977       1.93489532E-14
  0.688000023       2.72738714E-14
  0.689000010       3.43622937E-14
  0.689999998       4.03415636E-14
  0.690999985       4.49755725E-14
  0.691999972       4.80740664E-14
  0.693000019       4.95003683E-14
  0.694000006       4.91771608E-14
  0.694999993       4.70901191E-14
  0.695999980       4.32891875E-14
  0.697000027       3.78874585E-14
  0.698000014       3.10576285E-14
  0.699000001       2.30261485E-14
  0.699999988       1.40652675E-14
  0.700999975       4.48327551E-15
  0.702000022      -5.38673059E-15
  0.703000009      -1.51991135E-14
  0.703999996      -2.46085331E-14
  0.704999983      -3.32828654E-14
  0.705999970      -4.09156927E-14
  0.707000017      -4.72378687E-14
  0.708000004      -5.20277350E-14
  0.708999991      -5.51195340E-14
  0.709999979      -5.64097041E-14
  0.711000025      -5.58607861E-14
  0.712000012      -5.35028259E-14
  0.713000000      -4.94321177E-14
  0.713999987      -4.38074022E-14
  0.714999974      -3.68436496E-14
  0.716000021      -2.88036400E-14
  0.717000008      -1.99876956E-14
  0.717999995      -1.07219743E-14
  0.718999982      -1.34576076E-15
  0.720000029       7.80170623E-15
  0.721000016       1.63943667E-14
  0.722000003       2.41318907E-14
  0.722999990       3.07511652E-14
  0.723999977       3.60362341E-14
  0.725000024       3.98263135E-14
  0.726000011       4.20215417E-14
  0.726999998       4.25862721E-14
  0.727999985       4.15497409E-14
  0.728999972       3.90041291E-14
  0.730000019       3.51000797E-14
  0.731000006       3.00398778E-14
  0.731999993       2.40685903E-14
  0.732999980       1.74635019E-14
  0.734000027       1.05223354E-14
  0.735000014       3.55072252E-15
  0.736000001      -3.15055429E-15
  0.736999989      -9.29801111E-15
  0.737999976      -1.46370902E-14
  0.739000022      -1.89524825E-14
  0.740000010      -2.20767347E-14
  0.740999997      -2.38967629E-14
  0.741999984      -2.43580265E-14
  0.742999971      -2.34662025E-14
  0.744000018      -2.12862785E-14
  0.745000005      -1.79391211E-14
  0.745999992      -1.35956792E-14
  0.746999979      -8.46905808E-15
  0.748000026      -2.80481726E-15
  0.749000013       3.13011179E-15
  0.750000000       9.05940192E-15
  0.750999987       1.47097063E-14
  0.751999974       1.98229071E-14
  0.753000021       2.41677236E-14
  0.754000008       2.75501921E-14
  0.754999995       2.98225732E-14
  0.755999982       3.08903090E-14
  0.757000029       3.07167655E-14
  0.758000016       2.93254970E-14
  0.759000003       2.68000123E-14
  0.759999990       2.32809750E-14
  0.760999978       1.89610002E-14
  0.762000024       1.40772268E-14
  0.763000011       8.90198000E-15
  0.763999999       3.73190477E-15
  0.764999986      -1.12401029E-15
  0.765999973      -5.35700355E-15
  0.767000020      -8.67121265E-15
  0.768000007      -1.07959321E-14
  0.768999994      -1.14969535E-14
  0.769999981      -1.05865354E-14
  0.771000028      -7.93159195E-15
  0.772000015      -3.45977129E-15
  0.773000002       2.83683023E-15
  0.773999989       1.09004670E-14
  0.774999976       2.06091129E-14
  0.776000023       3.17803611E-14
  0.777000010       4.41776912E-14
  0.777999997       5.75188700E-14
  0.778999984       7.14861926E-14
  0.779999971       8.57381115E-14
  0.781000018       9.99218544E-14
  0.782000005       1.13686526E-13
  0.782999992       1.26696220E-13
  0.783999979       1.38642529E-13
  0.785000026       1.49256204E-13
  0.786000013       1.58317234E-13
  0.787000000       1.65663165E-13
  0.787999988       1.71195320E-13
  0.788999975       1.74882583E-13
  0.790000021       1.76762725E-13
  0.791000009       1.76941144E-13
  0.791999996       1.75587152E-13
  0.792999983       1.72927861E-13
  0.794000030       1.69239988E-13
  0.795000017       1.64839794E-13
  0.796000004       1.60071677E-13
  0.796999991       1.55295644E-13
  0.797999978       1.50874376E-13
  0.799000025       1.47160170E-13
  0.800000012       1.44482272E-13
  0.800999999       1.43135219E-13
  0.801999986       1.43368363E-13
  0.802999973       1.45377213E-13
  0.804000020       1.49296699E-13
  0.805000007       1.55196792E-13
  0.805999994       1.63080365E-13
  0.806999981       1.72883694E-13
  0.808000028       1.84479290E-13
  0.809000015       1.97681051E-13
  0.810000002       2.12251617E-13
  0.810999990       2.27911494E-13
  0.811999977       2.44349679E-13
  0.813000023       2.61235423E-13
  0.814000010       2.78230672E-13
  0.814999998       2.95002656E-13
  0.815999985       3.11236226E-13
  0.816999972       3.26645530E-13
  0.818000019       3.40984619E-13
  0.819000006       3.54056384E-13
  0.819999993       3.65719716E-13
  0.820999980       3.75894709E-13
  0.822000027       3.84565372E-13
  0.823000014       3.91780168E-13
  0.824000001       3.97650147E-13
  0.824999988       4.02344716E-13
  0.825999975       4.06085349E-13
  0.827000022       4.09137405E-13
  0.828000009       4.11800449E-13
  0.828999996       4.14397195E-13
  0.829999983       4.17261847E-13
  0.830999970       4.20728014E-13
  0.832000017       4.25116566E-13
  0.833000004       4.30724277E-13
  0.833999991       4.37813197E-13
  0.834999979       4.46601442E-13
  0.836000025       4.57255653E-13
  0.837000012       4.69885361E-13
  0.838000000       4.84539546E-13
  0.838999987       5.01205251E-13
  0.839999974       5.19808697E-13
  0.841000021       5.40218369E-13
  0.842000008       5.62250442E-13
  0.842999995       5.85675768E-13
  0.843999982       6.10228773E-13
  0.845000029       6.35617156E-13
  0.846000016       6.61533003E-13
  0.847000003       6.87663847E-13
  0.847999990       7.13703890E-13
  0.848999977       7.39365058E-13
  0.850000024       7.64386872E-13
  0.851000011       7.88545498E-13
  0.851999998       8.11661014E-13
  0.852999985       8.33603152E-13
  0.853999972       8.54294988E-13
  0.855000019       8.73714783E-13
  0.856000006       8.91895444E-13