   0.00000000       0.00000000    
   1.00000005E-03   0.00000000    
   2.00000009E-03   0.00000000    
   3.00000003E-03   0.00000000    
   4.00000019E-03   0.00000000    
   4.99999989E-03   0.00000000    
   6.00000005E-03   0.00000000    
   7.00000022E-03   0.00000000    
   8.00000038E-03   0.00000000    
   8.99999961E-03   0.00000000    
   9.99999978E-03  -6.42449103E-38
   1.09999999E-02  -1.35928955E-36
   1.20000001E-02  -1.38221132E-35
   1.30000003E-02  -8.00053394E-35
   1.40000004E-02  -3.74154548E-34
   1.49999997E-02  -1.50017416E-33
   1.60000008E-02  -5.33199793E-33
   1.70000009E-02  -1.71779721E-32
   1.79999992E-02  -5.07827489E-32
   1.89999994E-02  -1.39184409E-31
   1.99999996E-02  -3.56703291E-31
   2.09999997E-02  -8.60724329E-31
   2.19999999E-02  -1.96646306E-30
   2.30000000E-02  -4.27335417E-30
   2.40000002E-02  -8.86728690E-30
   2.50000004E-02  -1.76257527E-29
   2.60000005E-02  -3.36500767E-29
   2.70000007E-02  -6.18342739E-29
   2.80000009E-02  -1.09545126E-28
   2.89999992E-02  -1.87322952E-28
   2.99999993E-02  -3.09405412E-28
   3.09999995E-02  -4.93715656E-28
   3.20000015E-02  -7.60733854E-28
   3.29999998E-02  -1.13038625E-27
   3.40000018E-02  -1.61575296E-27
   3.50000001E-02  -2.21204860E-27
   3.59999985E-02  -2.87903069E-27
   3.70000005E-02  -3.51484333E-27
   3.79999988E-02  -3.91943923E-27
   3.90000008E-02  -3.74633549E-27
   3.99999991E-02  -2.44275479E-27
   4.10000011E-02   8.19583821E-28
   4.19999994E-02   7.21740013E-27
   4.30000015E-02   1.83422224E-26
   4.39999998E-02   3.62439154E-26
   4.50000018E-02   6.34278496E-26
   4.60000001E-02   1.02774253E-25
   4.69999984E-02   1.57340366E-25
   4.80000004E-02   2.29999299E-25
   4.89999987E-02   3.22865977E-25
   5.00000007E-02   4.36461997E-25
   5.09999990E-02   5.68580717E-25
   5.20000011E-02   7.12834386E-25
   5.29999994E-02   8.56899172E-25
   5.40000014E-02   9.80523931E-25
   5.49999997E-02   1.05343756E-24
   5.60000017E-02   1.03337446E-24
   5.70000000E-02   8.64541361E-25
   5.79999983E-02   4.76958714E-25
   5.90000004E-02  -2.12776223E-25
   5.99999987E-02  -1.29865694E-24
   6.10000007E-02  -2.87964661E-24
   6.19999990E-02  -5.05053403E-24
   6.30000010E-02  -7.88858933E-24
   6.40000030E-02  -1.14355083E-23
   6.49999976E-02  -1.56744374E-23
   6.59999996E-02  -2.05023230E-23
   6.70000017E-02  -2.56984645E-23
   6.80000037E-02  -3.08909474E-23
   6.89999983E-02  -3.55236025E-23
   7.00000003E-02  -3.88272384E-23
   7.10000023E-02  -3.98000395E-23
   7.19999969E-02  -3.72031157E-23
   7.29999989E-02  -2.95781692E-23
   7.40000010E-02  -1.52948517E-23
   7.50000030E-02   7.36456008E-24
   7.59999976E-02   4.00760525E-23
   7.69999996E-02   8.42948743E-23
   7.80000016E-02   1.41023768E-22
   7.90000036E-02   2.10529532E-22
   7.99999982E-02   2.92014219E-22
   8.10000002E-02   3.83253897E-22
   8.20000023E-02   4.80225803E-22
   8.29999968E-02   5.76753096E-22
   8.39999989E-02   6.64205484E-22
   8.50000009E-02   7.31303089E-22
   8.60000029E-02   7.64077597E-22
   8.69999975E-02   7.46050673E-22
   8.79999995E-02   6.58690929E-22
   8.90000015E-02   4.82208028E-22
   9.00000036E-02   1.96733239E-22
   9.09999982E-02  -2.16080109E-22
   9.20000002E-02  -7.71026742E-22
   9.30000022E-02  -1.47691402E-21
   9.39999968E-02  -2.33378347E-21
   9.49999988E-02  -3.32990179E-21
   9.60000008E-02  -4.43868752E-21
   9.70000029E-02  -5.61579380E-21
   9.79999974E-02  -6.79662644E-21
   9.89999995E-02  -7.89462308E-21
  0.100000001      -8.80066696E-21
  0.101000004      -9.38401508E-21
  0.101999998      -9.49513436E-21
  0.103000000      -8.97079878E-21
  0.104000002      -7.64173522E-21
  0.104999997      -5.34298859E-21
  0.105999999      -1.92703881E-21
  0.107000001       2.72051060E-21
  0.108000003       8.66307790E-21
  0.108999997       1.58937649E-20
  0.109999999       2.43154992E-20
  0.111000001       3.37219305E-20
  0.112000003       4.37806277E-20
  0.112999998       5.40203741E-20
  0.114000000       6.38245194E-20
  0.115000002       7.24324387E-20
  0.115999997       7.89511324E-20
  0.116999999       8.23787492E-20
  0.118000001       8.16414792E-20
  0.119000003       7.56447300E-20
  0.119999997       6.33386929E-20
  0.120999999       4.37974686E-20
  0.122000001       1.63098820E-20
  0.123000003      -1.95211975E-20
  0.123999998      -6.36755170E-20
  0.125000000      -1.15613819E-19
  0.126000002      -1.74184928E-19
  0.127000004      -2.37549728E-19
  0.128000006      -3.03130443E-19
  0.128999993      -3.67594644E-19
  0.129999995      -4.26882608E-19
  0.130999997      -4.76285996E-19
  0.131999999      -5.10584574E-19
  0.133000001      -5.24244687E-19
  0.134000003      -5.11681054E-19
  0.135000005      -4.67578886E-19
  0.136000007      -3.87269548E-19
  0.136999995      -2.67147879E-19
  0.137999997      -1.05114325E-19
  0.138999999       9.89799927E-20
  0.140000001       3.42911678E-19
  0.141000003       6.21717272E-19
  0.142000005       9.27412259E-19
  0.143000007       1.24883128E-18
  0.143999994       1.57162310E-18
  0.144999996       1.87843122E-18
  0.145999998       2.14928448E-18
  0.147000000       2.36221690E-18
  0.148000002       2.49412243E-18
  0.149000004       2.52183939E-18
  0.150000006       2.42344398E-18
  0.150999993       2.17971583E-18
  0.151999995       1.77572248E-18
  0.152999997       1.20245178E-18
  0.153999999       4.58406693E-19
  0.155000001      -4.48937181E-19
  0.156000003      -1.50191908E-18
  0.157000005      -2.67183846E-18
  0.158000007      -3.91857211E-18
  0.158999994      -5.19076224E-18
  0.159999996      -6.42666769E-18
  0.160999998      -7.55574151E-18
  0.162000000      -8.50096576E-18
  0.163000003      -9.18194220E-18
  0.164000005      -9.51868660E-18
  0.165000007      -9.43602892E-18
  0.165999994      -8.86847301E-18
  0.166999996      -7.76531516E-18
  0.167999998      -6.09577683E-18
  0.169000000      -3.85386673E-18
  0.170000002      -1.06265722E-18
  0.171000004       2.22235658E-18
  0.172000006       5.91114185E-18
  0.172999993       9.87857138E-18
  0.173999995       1.39656890E-17
  0.174999997       1.79830107E-17
  0.175999999       2.17159825E-17
  0.177000001       2.49326166E-17
  0.178000003       2.73932209E-17
  0.179000005       2.88619628E-17
  0.180000007       2.91199472E-17
  0.180999994       2.79792684E-17
  0.181999996       2.52974347E-17
  0.182999998       2.09914038E-17
  0.184000000       1.50504421E-17
  0.185000002       7.54690640E-18
  0.186000004      -1.35591736E-18
  0.187000006      -1.13997532E-17
  0.187999994      -2.22317991E-17
  0.188999996      -3.34103080E-17
  0.189999998      -4.44156814E-17
  0.191000000      -5.46672219E-17
  0.192000002      -6.35454043E-17
  0.193000004      -7.04191759E-17
  0.194000006      -7.46775017E-17
  0.194999993      -7.57640134E-17
  0.195999995      -7.32132729E-17
  0.196999997      -6.66869370E-17
  0.197999999      -5.60078633E-17
  0.199000001      -4.11900575E-17
  0.200000003      -2.24623327E-17
  0.201000005      -2.83599700E-19
  0.202000007       2.46520469E-17
  0.202999994       5.14220004E-17
  0.203999996       7.88946935E-17
  0.204999998       1.05762519E-16
  0.206000000       1.30588049E-16
  0.207000002       1.51862737E-16
  0.208000004       1.68076337E-16
  0.209000006       1.77794836E-16
  0.209999993       1.79743660E-16
  0.210999995       1.72892381E-16
  0.211999997       1.56536718E-16
  0.213000000       1.30373075E-16
  0.214000002       9.45608656E-17
  0.215000004       4.97680329E-17
  0.216000006      -2.80466505E-18
  0.216999993      -6.14242088E-17
  0.217999995      -1.23853462E-16
  0.218999997      -1.87408448E-16
  0.219999999      -2.49045104E-16
  0.221000001      -3.05474121E-16
  0.222000003      -3.53300857E-16
  0.223000005      -3.89185911E-16
  0.224000007      -4.10020009E-16
  0.224999994      -4.13105803E-16
  0.225999996      -3.96337754E-16
  0.226999998      -3.58370614E-16
  0.228000000      -2.98766599E-16
  0.229000002      -2.18111500E-16
  0.230000004      -1.18090554E-16
  0.231000006      -1.51613604E-18
  0.231999993       1.27698978E-16
  0.232999995       2.64626751E-16
  0.233999997       4.03468686E-16
  0.234999999       5.37758560E-16
  0.236000001       6.60618624E-16
  0.237000003       7.65060487E-16
  0.238000005       8.44319901E-16
  0.238999993       8.92211355E-16
  0.239999995       9.03486211E-16
  0.240999997       8.74175959E-16
  0.241999999       8.01901973E-16
  0.243000001       6.86133216E-16
  0.244000003       5.28373435E-16
  0.245000005       3.32262729E-16
  0.246000007       1.03580549E-16
  0.246999994      -1.49857876E-16
  0.247999996      -4.18415906E-16
  0.248999998      -6.90958815E-16
  0.250000000      -9.55277617E-16
  0.250999987      -1.19860096E-15
  0.252000004      -1.40817491E-15
  0.252999991      -1.57188690E-15
  0.254000008      -1.67890432E-15
  0.254999995      -1.72029745E-15
  0.256000012      -1.68961177E-15
  0.256999999      -1.58335742E-15
  0.257999986      -1.40138393E-15
  0.259000003      -1.14711258E-15
  0.259999990      -8.27603811E-16
  0.261000007      -4.53444848E-16
  0.261999995      -3.84498563E-17
  0.263000011       4.00824037E-16
  0.263999999       8.45732275E-16
  0.264999986       1.27634768E-15
  0.266000003       1.67238122E-15
  0.266999990       2.01417870E-15
  0.268000007       2.28374482E-15
  0.268999994       2.46574234E-15
  0.270000011       2.54841001E-15
  0.270999998       2.52434622E-15
  0.272000015       2.39110604E-15
  0.273000002       2.15156851E-15
  0.273999989       1.81403879E-15
  0.275000006       1.39206329E-15
  0.275999993       9.03950173E-16
  0.277000010       3.72002736E-16
  0.277999997      -1.78509017E-16
  0.279000014      -7.20597186E-16
  0.280000001      -1.22696894E-15
  0.280999988      -1.67153334E-15
  0.282000005      -2.03092349E-15
  0.282999992      -2.28594414E-15
  0.284000009      -2.42285982E-15
  0.284999996      -2.43443601E-15
  0.286000013      -2.32065746E-15
  0.287000000      -2.08905875E-15
  0.287999988      -1.75462081E-15
  0.289000005      -1.33921214E-15
  0.289999992      -8.70573105E-16
  0.291000009      -3.80873791E-16
  0.291999996       9.50993801E-17
  0.293000013       5.22045622E-16
  0.294000000       8.66433549E-16
  0.294999987       1.09884208E-15
  0.296000004       1.19621857E-15
  0.296999991       1.14390825E-15
  0.298000008       9.37311095E-16
  0.298999995       5.83032471E-16
  0.300000012       9.94134777E-17
  0.300999999      -4.83648295E-16
  0.301999986      -1.12563881E-15
  0.303000003      -1.77713886E-15
  0.303999990      -2.38227318E-15
  0.305000007      -2.88181488E-15
  0.305999994      -3.21681789E-15
  0.307000011      -3.33260221E-15
  0.307999998      -3.18288491E-15
  0.308999985      -2.73381662E-15
  0.310000002      -1.96766939E-15
  0.310999990      -8.85916524E-16
  0.312000006       4.88544093E-16
  0.312999994       2.11024558E-15
  0.314000010       3.91126527E-15
  0.314999998       5.80271948E-15
  0.316000015       7.67769722E-15
  0.317000002       9.41560469E-15
  0.317999989       1.08878157E-14
  0.319000006       1.19644395E-14
  0.319999993       1.25219168E-14
  0.321000010       1.24511040E-14
  0.321999997       1.16654208E-14
  0.323000014       1.01086089E-14
  0.324000001       7.76161192E-15
  0.324999988       4.64809838E-15
  0.326000005       8.38169806E-16
  0.326999992      -3.55013425E-15
  0.328000009      -8.35185752E-15
  0.328999996      -1.33588683E-14
  0.330000013      -1.83263998E-14
  0.331000000      -2.29823146E-14
  0.331999987      -2.70388519E-14
  0.333000004      -3.02064858E-14
  0.333999991      -3.22093392E-14
  0.335000008      -3.28014762E-14
  0.335999995      -3.17832850E-14
  0.337000012      -2.90170787E-14
  0.338000000      -2.44410188E-14
  0.338999987      -1.80804231E-14
  0.340000004      -1.00556346E-14
  0.340999991      -5.85704648E-16
  0.342000008       1.00127375E-14
  0.342999995       2.13317862E-14
  0.344000012       3.28839027E-14
  0.344999999       4.41188054E-14
  0.345999986       5.44452145E-14
  0.347000003       6.32567525E-14
  0.347999990       6.99610657E-14
  0.349000007       7.40109742E-14
  0.349999994       7.49362052E-14
  0.351000011       7.23741406E-14
  0.351999998       6.60979653E-14
  0.352999985       5.60405468E-14
  0.354000002       4.23124230E-14
  0.354999989       2.52125201E-14
  0.356000006       5.23045047E-15
  0.356999993      -1.69604660E-14
  0.358000010      -4.05198776E-14
  0.358999997      -6.44667425E-14
  0.360000014      -8.77148153E-14
  0.361000001      -1.09116255E-13
  0.361999989      -1.27511852E-13
  0.363000005      -1.41785943E-13
  0.363999993      -1.50923612E-13
  0.365000010      -1.54067555E-13
  0.365999997      -1.50571762E-13
  0.367000014      -1.40049173E-13
  0.368000001      -1.22410505E-13
  0.368999988      -9.78915774E-14
  0.370000005      -6.70670388E-14
  0.370999992      -3.08487638E-14
  0.372000009       9.53211238E-15
  0.372999996       5.25598648E-14
  0.374000013       9.64850419E-14
  0.375000000       1.39390235E-13
  0.375999987       1.79268520E-13
  0.377000004       2.14111864E-13
  0.377999991       2.42005553E-13
  0.379000008       2.61224825E-13
  0.379999995       2.70328925E-13
  0.381000012       2.68247908E-13
  0.381999999       2.54357597E-13
  0.382999986       2.28538081E-13
  0.384000003       1.91212064E-13
  0.384999990       1.43359635E-13
  0.386000007       8.65073936E-14
  0.386999995       2.26908302E-14
  0.388000011      -4.56101289E-14
  0.388999999      -1.15560773E-13
  0.389999986      -1.84083773E-13
  0.391000003      -2.47989915E-13
  0.391999990      -3.04122098E-13
  0.393000007      -3.49506529E-13
  0.393999994      -3.81504100E-13
  0.395000011      -3.97954890E-13
  0.395999998      -3.97308082E-13
  0.397000015      -3.78730304E-13
  0.398000002      -3.42185807E-13
  0.398999989      -2.88482915E-13
  0.400000006      -2.19282613E-13
  0.400999993      -1.37066506E-13
  0.402000010      -4.50633996E-14
  0.402999997       5.28642309E-14
  0.404000014       1.52370846E-13
  0.405000001       2.48810168E-13
  0.405999988       3.37442314E-13
  0.407000005       4.13656983E-13
  0.407999992       4.73202749E-13
  0.409000009       5.12411673E-13
  0.409999996       5.28408155E-13
  0.411000013       5.19290774E-13
  0.412000000       4.84276898E-13
  0.412999988       4.23800941E-13
  0.414000005       3.39558920E-13
  0.414999992       2.34494173E-13
  0.416000009       1.12721505E-13
  0.416999996      -2.06095449E-14
  0.418000013      -1.59509328E-13
  0.419000000      -2.97394244E-13
  0.419999987      -4.27375068E-13
  0.421000004      -5.42576075E-13
  0.421999991      -6.36470748E-13
  0.423000008      -7.03218787E-13
  0.423999995      -7.37988284E-13
  0.425000012      -7.37246418E-13
  0.425999999      -6.99002705E-13
  0.426999986      -6.22990754E-13
  0.428000003      -5.10776425E-13
  0.428999990      -3.65782762E-13
  0.430000007      -1.93226498E-13
  0.430999994       3.56024888E-17
  0.432000011       2.05748125E-13
  0.432999998       4.14578934E-13
  0.433999985       6.16510423E-13
  0.435000002       8.01284766E-13
  0.435999990       9.58884664E-13
  0.437000006       1.08002843E-12
  0.437999994       1.15665593E-12
  0.439000010       1.18238210E-12
  0.439999998       1.15289397E-12
  0.441000015       1.06626979E-12
  0.442000002       9.23200969E-13
  0.442999989       7.27100671E-13
  0.444000006       4.84088843E-13
  0.444999993       2.02847504E-13
  0.446000010      -1.05653076E-13
  0.446999997      -4.28550533E-13
  0.448000014      -7.51596647E-13
  0.449000001      -1.05975471E-12
  0.449999988      -1.33786439E-12
  0.451000005      -1.57134581E-12
  0.451999992      -1.74691186E-12
  0.453000009      -1.85325475E-12
  0.453999996      -1.88167407E-12
  0.455000013      -1.82661308E-12
  0.456000000      -1.68607402E-12
  0.456999987      -1.46188866E-12
  0.458000004      -1.15982159E-12
  0.458999991      -7.89496452E-13
  0.460000008      -3.64139057E-13
  0.460999995       9.98584218E-14
  0.462000012       5.83540269E-13
  0.463000000       1.06613633E-12
  0.463999987       1.52592858E-12
  0.465000004       1.94120132E-12
  0.465999991       2.29123231E-12
  0.467000008       2.55728229E-12
  0.467999995       2.72353841E-12
  0.469000012       2.77796080E-12
  0.469999999       2.71299498E-12
  0.470999986       2.52610823E-12
  0.472000003       2.22011884E-12
  0.472999990       1.80329438E-12
  0.474000007       1.28920550E-12
  0.474999994       6.96332586E-13
  0.476000011       4.74328964E-14
  0.476999998      -6.31311626E-13
  0.477999985      -1.31133494E-12
  0.479000002      -1.96287561E-12
  0.479999989      -2.55626531E-12
  0.481000006      -3.06326058E-12
  0.481999993      -3.45835903E-12
  0.483000010      -3.72003990E-12
  0.483999997      -3.83186928E-12
  0.485000014      -3.78341412E-12
  0.486000001      -3.57091895E-12
  0.486999989      -3.19770360E-12
  0.488000005      -2.67425535E-12
  0.488999993      -2.01800295E-12
  0.490000010      -1.25277100E-12
  0.490999997      -4.07929089E-13
  0.492000014       4.82735054E-13
  0.493000001       1.38237490E-12
  0.493999988       2.25262387E-12
  0.495000005       3.05524616E-12
  0.495999992       3.75383362E-12
  0.497000009       4.31546552E-12
  0.497999996       4.71226010E-12
  0.499000013       4.92274580E-12
  0.500000000       4.93297850E-12
  0.500999987       4.73735374E-12
  0.501999974       4.33906513E-12
  0.503000021       3.75018159E-12
  0.504000008       2.99132897E-12
  0.504999995       2.09098038E-12
  0.505999982       1.08437770E-12
  0.507000029       1.21264218E-14
  0.508000016      -1.08148234E-12
  0.509000003      -2.15035151E-12
  0.509999990      -3.14857970E-12
  0.510999978      -4.03249352E-12
  0.512000024      -4.76262389E-12
  0.513000011      -5.30553032E-12
  0.513999999      -5.63538929E-12
  0.514999986      -5.73526990E-12
  0.515999973      -5.59803115E-12
  0.517000020      -5.22679469E-12
  0.518000007      -4.63496169E-12
  0.518999994      -3.84576485E-12
  0.519999981      -2.89137030E-12
  0.521000028      -1.81155796E-12
  0.522000015      -6.52038211E-13
  0.523000002       5.37524832E-13
  0.523999989       1.70569917E-12
  0.524999976       2.80158167E-12
  0.526000023       3.77710016E-12
  0.527000010       4.58921616E-12
  0.527999997       5.20192570E-12
  0.528999984       5.58796065E-12
  0.529999971       5.73010736E-12
  0.531000018       5.62208006E-12
  0.532000005       5.26889556E-12
  0.532999992       4.68673234E-12
  0.533999979       3.90226870E-12
  0.535000026       2.95152553E-12
  0.536000013       1.87826360E-12
  0.537000000       7.32002133E-13
  0.537999988      -4.34251864E-13
  0.538999975      -1.56645833E-12
  0.540000021      -2.61207245E-12
  0.541000009      -3.52252580E-12
  0.541999996      -4.25554297E-12
  0.542999983      -4.77718169E-12
  0.544000030      -5.06349606E-12
  0.545000017      -5.10173978E-12
  0.546000004      -4.89104634E-12
  0.546999991      -4.44254702E-12
  0.547999978      -3.77891468E-12
  0.549000025      -2.93334844E-12
  0.550000012      -1.94804112E-12
  0.550999999      -8.72196629E-13
  0.551999986       2.40312110E-13
  0.552999973       1.33353658E-12
  0.554000020       2.35217553E-12
  0.555000007       3.24429719E-12
  0.555999994       3.96392771E-12
  0.556999981       4.47338043E-12
  0.558000028       4.74520857E-12
  0.559000015       4.76367947E-12
  0.560000002       4.52569492E-12
  0.560999990       4.04110339E-12
  0.561999977       3.33238081E-12
  0.563000023       2.43368476E-12
  0.564000010       1.38931922E-12
  0.564999998       2.51677097E-13
  0.565999985      -9.21247887E-13
  0.566999972      -2.06866642E-12
  0.568000019      -3.12998195E-12
  0.569000006      -4.04782154E-12
  0.569999993      -4.77096010E-12
  0.570999980      -5.25699406E-12
  0.572000027      -5.47462943E-12
  0.573000014      -5.40546687E-12
  0.574000001      -5.04518649E-12
  0.574999988      -4.40406305E-12
  0.575999975      -3.50677863E-12
  0.577000022      -2.39152144E-12
  0.578000009      -1.10840894E-12
  0.578999996       2.82706963E-13
  0.579999983       1.71495457E-12
  0.580999970       3.11755656E-12
  0.582000017       4.41920155E-12
  0.583000004       5.55151324E-12
  0.583999991       6.45245489E-12
  0.584999979       7.06950037E-12
  0.586000025       7.36241623E-12
  0.587000012       7.30551643E-12
  0.588000000       6.88926607E-12
  0.588999987       6.12114569E-12
  0.589999974       5.02572419E-12
  0.591000021       3.64391807E-12
  0.592000008       2.03145400E-12
  0.592999995       2.56596177E-13
  0.593999982      -1.60276967E-12
  0.595000029      -3.46257181E-12
  0.596000016      -5.23635302E-12
  0.597000003      -6.83926570E-12
  0.597999990      -8.19207462E-12
  0.598999977      -9.22498536E-12
  0.600000024      -9.88110808E-12
  0.601000011      -1.01193906E-11
  0.601999998      -9.91687635E-12
  0.602999985      -9.27016623E-12
  0.603999972      -8.19600464E-12
  0.605000019      -6.73094436E-12
  0.606000006      -4.93008932E-12
  0.606999993      -2.86496131E-12
  0.607999980      -6.20571628E-13
  0.609000027       1.70818188E-12
  0.610000014       4.02063452E-12
  0.611000001       6.21480948E-12
  0.611999989       8.19201131E-12
  0.612999976       9.86134698E-12
  0.614000022       1.11439651E-11
  0.615000010       1.19768171E-11
  0.615999997       1.23157621E-11
  0.616999984       1.21378593E-11
  0.617999971       1.14427356E-11
  0.619000018       1.02529521E-11
  0.620000005       8.61333834E-12
  0.620999992       6.58931156E-12
  0.621999979       4.26424521E-12
  0.623000026       1.73598950E-12
  0.624000013      -8.87305637E-13
  0.625000000      -3.49188517E-12
  0.625999987      -5.96339644E-12
  0.626999974      -8.19198615E-12
  0.628000021      -1.00772559E-11
  0.629000008      -1.15328554E-11
  0.629999995      -1.24905000E-11
  0.630999982      -1.29032245E-11
  0.632000029      -1.27477221E-11
  0.633000016      -1.20256487E-11
  0.634000003      -1.07638273E-11
  0.634999990      -9.01333522E-12
  0.635999978      -6.84749393E-12
  0.637000024      -4.35885139E-12
  0.638000011      -1.65527813E-12
  0.638999999       1.14466130E-12
  0.639999986       3.91685209E-12
  0.640999973       6.53707253E-12
  0.642000020       8.88649050E-12
  0.643000007       1.08569768E-11
  0.643999994       1.23559895E-11
  0.644999981       1.33108151E-11
  0.646000028       1.36719707E-11
  0.647000015       1.34156132E-11
  0.648000002       1.25448384E-11
  0.648999989       1.10898053E-11
  0.649999976       9.10667288E-12
  0.651000023       6.67538681E-12
  0.652000010       3.89640577E-12
  0.652999997       8.86505496E-13
  0.653999984      -2.22616500E-12
  0.654999971      -5.30755778E-12
  0.656000018      -8.22350087E-12
  0.657000005      -1.08455181E-11
  0.657999992      -1.30564431E-11
  0.658999979      -1.47555787E-11
  0.660000026      -1.58631788E-11
  0.661000013      -1.63240567E-11
  0.662000000      -1.61101462E-11
  0.662999988      -1.52219157E-11
  0.663999975      -1.36885590E-11
  0.665000021      -1.15669462E-11
  0.666000009      -8.93939003E-12
  0.666999996      -5.91030089E-12
  0.667999983      -2.60187791E-12
  0.669000030       8.50978576E-13
  0.670000017       4.30632526E-12
  0.671000004       7.62116065E-12
  0.671999991       1.06574801E-11
  0.672999978       1.32881458E-11
  0.674000025       1.54023183E-11
  0.675000012       1.69102180E-11
  0.675999999       1.77470174E-11
  0.676999986       1.78756784E-11
  0.677999973       1.72886341E-11
  0.679000020       1.60082312E-11
  0.680000007       1.40859061E-11
  0.680999994       1.16001332E-11
  0.681999981       8.65322831E-12
  0.683000028       5.36714163E-12
  0.684000015       1.87840759E-12
  0.685000002      -1.66752679E-12
  0.685999990      -5.12236954E-12
  0.686999977      -8.34118278E-12
  0.688000023      -1.11884634E-11
  0.689000010      -1.35438449E-11
  0.689999998      -1.53071809E-11
  0.690999985      -1.64028045E-11
  0.691999972      -1.67827731E-11
  0.693000019      -1.64289780E-11
  0.694000006      -1.53540115E-11
  0.694999993      -1.36007637E-11
  0.695999980      -1.12407644E-11
  0.697000027      -8.37133141E-12
  0.698000014      -5.11164115E-12
  0.699000001      -1.59788827E-12
  0.699999988       2.02227861E-12
  0.700999975       5.59580941E-12
  0.702000022       8.97054826E-12
  0.703000009       1.20015135E-11
  0.703999996       1.45569095E-11
  0.704999983       1.65236193E-11
  0.705999970       1.78119481E-11
  0.707000017       1.83594320E-11
  0.708000004       1.81335520E-11
  0.708999991       1.71332323E-11
  0.709999979       1.53890650E-11
  0.711000025       1.29622545E-11
  0.712000012       9.94230479E-12
  0.713000000       6.44355489E-12
  0.713999987       2.60069245E-12
  0.714999974      -1.43657677E-12
  0.716000021      -5.50949087E-12
  0.717000008      -9.45658222E-12
  0.717999995      -1.31201681E-11
  0.718999982      -1.63527161E-11
  0.720000029      -1.90228302E-11
  0.721000016      -2.10206141E-11
  0.722000003      -2.22621938E-11
  0.722999990      -2.26932171E-11
  0.723999977      -2.22911811E-11
  0.725000024      -2.10664923E-11
  0.726000011      -1.90622171E-11
  0.726999998      -1.63525114E-11
  0.727999985      -1.30398062E-11
  0.728999972      -9.25084488E-12
  0.730000019      -5.13172577E-12
  0.731000006      -8.42149050E-13
  0.731999993       3.45090471E-12
  0.732999980       7.57981698E-12
  0.734000027       1.13830299E-11
  0.735000014       1.47115271E-11
  0.736000001       1.74348418E-11
  0.736999989       1.94463421E-11
  0.737999976       2.06675822E-11
  0.739000022       2.10515372E-11
  0.740000010       2.05845861E-11
  0.740999997       1.92871517E-11
  0.741999984       1.72129724E-11
  0.742999971       1.44470269E-11
  0.744000018       1.11021765E-11
  0.745000005       7.31466623E-12
  0.745999992       3.23866173E-12
  0.746999979      -9.59976456E-13
  0.748000026      -5.11041643E-12
  0.749000013      -9.04381344E-12
  0.750000000      -1.26002186E-11
  0.750999987      -1.56351581E-11
  0.751999974      -1.80256088E-11
  0.753000021      -1.96751192E-11
  0.754000008      -2.05178634E-11
  0.754999995      -2.05214543E-11
  0.755999982      -1.96883898E-11
  0.757000029      -1.80560619E-11
  0.758000016      -1.56953200E-11
  0.759000003      -1.27076370E-11
  0.759999990      -9.22098682E-12
  0.760999978      -5.38459034E-12
  0.762000024      -1.36274781E-12
  0.763000011       2.67200129E-12
  0.763999999       6.54609787E-12
  0.764999986       1.00922768E-11
  0.765999973       1.31566607E-11
  0.767000020       1.56053313E-11
  0.768000007       1.73301096E-11
  0.768999994       1.82532756E-11
  0.769999981       1.83310398E-11
  0.771000028       1.75555976E-11
  0.772000015       1.59556708E-11
  0.773000002       1.35954954E-11
  0.773999989       1.05722904E-11
  0.774999976       7.01230480E-12
  0.776000023       3.06559465E-12
  0.777000010      -1.10026007E-12
  0.777999997      -5.30723555E-12
  0.778999984      -9.37444219E-12
  0.779999971      -1.31258823E-11
  0.781000018      -1.63980652E-11
  0.782000005      -1.90471302E-11
  0.782999992      -2.09551820E-11
  0.783999979      -2.20355487E-11
  0.785000026      -2.22367316E-11
  0.786000013      -2.15448579E-11
  0.787000000      -1.99845158E-11
  0.787999988      -1.76179227E-11
  0.788999975      -1.45424428E-11
  0.790000021      -1.08865486E-11
  0.791000009      -6.80439429E-12
  0.791999996      -2.46920821E-12
  0.792999983       1.93420822E-12
  0.794000030       6.21755295E-12
  0.795000017       1.01973204E-11
  0.796000004       1.37029693E-11
  0.796999991       1.65845861E-11
  0.797999978       1.87197185E-11
  0.799000025       2.00190472E-11
  0.800000012       2.04306520E-11
  0.800999999       1.99426586E-11
  0.801999986       1.85841273E-11
  0.802999973       1.64241346E-11
  0.804000020       1.35690591E-11
  0.805000007       1.01581651E-11
  0.805999994       6.35767480E-12
  0.806999981       2.35355637E-12
  0.808000028      -1.65665897E-12
  0.809000015      -5.47268177E-12
  0.810000002      -8.90051574E-12
  0.810999990      -1.17613462E-11
  0.811999977      -1.38998786E-11
  0.813000023      -1.51917489E-11
  0.814000010      -1.55496623E-11
  0.814999998      -1.49279755E-11
  0.815999985      -1.33254944E-11
  0.816999972      -1.07863354E-11
  0.818000019      -7.39879685E-12
  0.819000006      -3.29224777E-12
  0.819999993       1.36784963E-12
  0.820999980       6.38658701E-12
  0.822000027       1.15476734E-11
  0.823000014       1.66225696E-11
  0.824000001       2.13803194E-11
  0.824999988       2.55976455E-11
  0.825999975       2.90688862E-11
  0.827000022       3.16153353E-11
  0.828000009       3.30935557E-11
  0.828999996       3.34023226E-11
  0.829999983       3.24878457E-11
  0.830999970       3.03470443E-11
  0.832000017       2.70287039E-11
  0.833000004       2.26324012E-11
  0.833999991       1.73052805E-11
  0.834999979       1.12367364E-11
  0.836000025       4.65123296E-12
  0.837000012      -2.20047309E-12
  0.838000000      -9.05133954E-12
  0.838999987      -1.56288593E-11
  0.839999974      -2.16662747E-11
  0.841000021      -2.69136709E-11
  0.842000008      -3.11485213E-11
  0.842999995      -3.41851963E-11
  0.843999982      -3.58830500E-11
  0.845000029      -3.61527266E-11
  0.846000016      -3.49603922E-11
  0.847000003      -3.23297188E-11
  0.847999990      -2.83415097E-11
  0.848999977      -2.31309537E-11
  0.850000024      -1.68826203E-11
  0.851000011      -9.82339037E-12
  0.851999998      -2.21358912E-12
  0.852999985       5.66331183E-12
  0.853999972       1.35120023E-11
  0.855000019       2.10371737E-11
  0.856000006       2.79554400E-11