   0.00000000       0.00000000    
   1.00000005E-03   0.00000000    
   2.00000009E-03   0.00000000    
   3.00000003E-03   0.00000000    
   4.00000019E-03   0.00000000    
   4.99999989E-03   0.00000000    
   6.00000005E-03   0.00000000    
   7.00000022E-03   0.00000000    
   8.00000038E-03   0.00000000    
   8.99999961E-03   0.00000000    
   9.99999978E-03   0.00000000    
   1.09999999E-02   0.00000000    
   1.20000001E-02   0.00000000    
   1.30000003E-02   0.00000000    
   1.40000004E-02   0.00000000    
   1.49999997E-02   0.00000000    
   1.60000008E-02   0.00000000    
   1.70000009E-02   0.00000000    
   1.79999992E-02   0.00000000    
   1.89999994E-02   0.00000000    
   1.99999996E-02  -4.53011796E-38
   2.09999997E-02  -2.80509685E-37
   2.19999999E-02  -1.13264538E-36
   2.30000000E-02  -3.72032877E-36
   2.40000002E-02  -1.06740641E-35
   2.50000004E-02  -2.78894530E-35
   2.60000005E-02  -6.77968031E-35
   2.70000007E-02  -1.55100430E-34
   2.80000009E-02  -3.36290314E-34
   2.89999992E-02  -6.94577709E-34
   2.99999993E-02  -1.37191156E-33
   3.09999995E-02  -2.59921913E-33
   3.20000015E-02  -4.73421497E-33
   3.29999998E-02  -8.30253644E-33
   3.40000018E-02  -1.40315014E-32
   3.50000001E-02  -2.28550250E-32
   3.59999985E-02  -3.58524073E-32
   3.70000005E-02  -5.40613555E-32
   3.79999988E-02  -7.80768285E-32
   3.90000008E-02  -1.07312737E-31
   3.99999991E-02  -1.38765980E-31
   4.10000011E-02  -1.65088213E-31
   4.19999994E-02  -1.71749129E-31
   4.30000015E-02  -1.33080642E-31
   4.39999998E-02  -7.04409406E-33
   4.50000018E-02   2.71313782E-31
   4.60000001E-02   7.97526650E-31
   4.69999984E-02   1.70595376E-30
   4.80000004E-02   3.17755420E-30
   4.89999987E-02   5.44545821E-30
   5.00000007E-02   8.79575215E-30
   5.09999990E-02   1.35599040E-29
   5.20000011E-02   2.00941856E-29
   5.29999994E-02   2.87404660E-29
   5.40000014E-02   3.97619371E-29
   5.49999997E-02   5.32471180E-29
   5.60000017E-02   6.89759833E-29
   5.70000000E-02   8.62439193E-29
   5.79999983E-02   1.03642451E-28
   5.90000004E-02   1.18801326E-28
   5.99999987E-02   1.28104193E-28
   6.10000007E-02   1.26400792E-28
   6.19999990E-02   1.06751504E-28
   6.30000010E-02   6.02553484E-29
   6.40000030E-02  -2.39705695E-29
   6.49999976E-02  -1.58575823E-28
   6.59999996E-02  -3.57426549E-28
   6.70000017E-02  -6.34611732E-28
   6.80000037E-02  -1.00289595E-27
   6.89999983E-02  -1.47151939E-27
   7.00000003E-02  -2.04327416E-27
   7.10000023E-02  -2.71083306E-27
   7.19999969E-02  -3.45238427E-27
   7.29999989E-02  -4.22672020E-27
   7.40000010E-02  -4.96806417E-27
   7.50000030E-02  -5.58106919E-27
   7.59999976E-02  -5.93660048E-27
   7.69999996E-02  -5.86909509E-27
   7.80000016E-02  -5.17647753E-27
   7.90000036E-02  -3.62375121E-27
   7.99999982E-02  -9.51501452E-28
   8.10000002E-02   3.10945607E-27
   8.20000023E-02   8.81613460E-27
   8.29999968E-02   1.63832651E-26
   8.39999989E-02   2.59445628E-26
   8.50000009E-02   3.75055813E-26
   8.60000029E-02   5.08892475E-26
   8.69999975E-02   6.56762757E-26
   8.79999995E-02   8.11439522E-26
   8.90000015E-02   9.62082681E-26
   9.00000036E-02   1.09375910E-25
   9.09999982E-02   1.18714075E-25
   9.20000002E-02   1.21847480E-25
   9.30000022E-02   1.15992579E-25
   9.39999968E-02   9.80397812E-26
   9.49999988E-02   6.46935029E-26
   9.60000008E-02   1.26786079E-26
   9.70000029E-02  -6.09808893E-26
   9.79999974E-02  -1.58609434E-25
   9.89999995E-02  -2.81457830E-25
  0.100000001      -4.29222719E-25
  0.101000004      -5.99526942E-25
  0.101999998      -7.87390814E-25
  0.103000000      -9.84732406E-25
  0.104000002      -1.17994698E-24
  0.104999997      -1.35762321E-24
  0.105999999      -1.49846200E-24
  0.107000001      -1.57946598E-24
  0.108000003      -1.57447013E-24
  0.108999997      -1.45507484E-24
  0.109999999      -1.19203312E-24
  0.111000001      -7.57121629E-25
  0.112000003      -1.25498106E-25
  0.112999998       7.21487599E-25
  0.114000000       1.79310648E-24
  0.115000002       3.08581264E-24
  0.115999997       4.57973514E-24
  0.116999999       6.23533093E-24
  0.118000001       7.99048728E-24
  0.119000003       9.75839478E-24
  0.119999997       1.14265571E-23
  0.120999999       1.28573023E-23
  0.122000001       1.38901540E-23
  0.123000003       1.43463885E-23
  0.123999998       1.40360112E-23
  0.125000000       1.27672964E-23
  0.126000002       1.03588765E-23
  0.127000004       6.65419320E-24
  0.128000006       1.53790859E-24
  0.128999993      -5.04635189E-24
  0.129999995      -1.30777921E-23
  0.130999997      -2.24408824E-23
  0.131999999      -3.29097560E-23
  0.133000001      -4.41360514E-23
  0.134000003      -5.56417928E-23
  0.135000005      -6.68188979E-23
  0.136000007      -7.69368657E-23
  0.136999995      -8.51598887E-23
  0.137999997      -9.05744154E-23
  0.138999999      -9.22275586E-23
  0.140000001      -8.91762509E-23
  0.141000003      -8.05461757E-23
  0.142000005      -6.55988267E-23
  0.143000007      -4.38039409E-23
  0.143999994      -1.49139092E-23
  0.144999996       2.09643304E-23
  0.145999998       6.33049012E-23
  0.147000000       1.11111740E-22
  0.148000002       1.62886272E-22
  0.149000004       2.16619766E-22
  0.150000006       2.69815522E-22
  0.150999993       3.19545035E-22
  0.151999995       3.62540908E-22
  0.152999997       3.95327533E-22
  0.153999999       4.14387548E-22
  0.155000001       4.16360533E-22
  0.156000003       3.98266260E-22
  0.157000005       3.57742842E-22
  0.158000007       2.93286847E-22
  0.158999994       2.04479966E-22
  0.159999996       9.21852188E-23
  0.160999998      -4.13055995E-23
  0.162000000      -1.92191268E-22
  0.163000003      -3.55164087E-22
  0.164000005      -5.23510765E-22
  0.165000007      -6.89320341E-22
  0.165999994      -8.43804550E-22
  0.166999996      -9.77726373E-22
  0.167999998      -1.08192669E-21
  0.169000000      -1.14792898E-21
  0.170000002      -1.16859234E-21
  0.171000004      -1.13877628E-21
  0.172000006      -1.05597077E-21
  0.172999993      -9.20840440E-22
  0.173999995      -7.37628062E-22
  0.174999997      -5.14362049E-22
  0.175999999      -2.62817303E-22
  0.177000001       1.81425031E-24
  0.178000003       2.61573604E-22
  0.179000005       4.96717767E-22
  0.180000007       6.87027469E-22
  0.180999994       8.13404653E-22
  0.181999996       8.59698545E-22
  0.182999998       8.14668042E-22
  0.184000000       6.73962115E-22
  0.185000002       4.41972335E-22
  0.186000004       1.33393261E-22
  0.187000006      -2.25687854E-22
  0.187999994      -5.97352539E-22
  0.188999996      -9.32235882E-22
  0.189999998      -1.17088335E-21
  0.191000000      -1.24619121E-21
  0.192000002      -1.08699055E-21
  0.193000004      -6.22764361E-22
  0.194000006       2.10588665E-22
  0.194999993       1.46412180E-21
  0.195999995       3.16861490E-21
  0.196999997       5.32712594E-21
  0.197999999       7.90778122E-21
  0.199000001       1.08373456E-20
  0.200000003       1.39961706E-20
  0.201000005       1.72151601E-20
  0.202000007       2.02753713E-20
  0.202999994       2.29108415E-20
  0.203999996       2.48151453E-20
  0.204999998       2.56520211E-20
  0.206000000       2.50702659E-20
  0.207000002       2.27228081E-20
  0.208000004       1.82896613E-20
  0.209000006       1.15040822E-20
  0.209999993       2.18101193E-21
  0.210999995      -9.75349824E-21
  0.211999997      -2.42334532E-20
  0.213000000      -4.10265234E-20
  0.214000002      -5.97121328E-20
  0.215000004      -7.96662107E-20
  0.216000006      -1.00054772E-19
  0.216999993      -1.19838360E-19
  0.217999995      -1.37789200E-19
  0.218999997      -1.52522411E-19
  0.219999999      -1.62542154E-19
  0.221000001      -1.66302762E-19
  0.222000003      -1.62284215E-19
  0.223000005      -1.49080345E-19
  0.224000007      -1.25497090E-19
  0.224999994      -9.06570952E-20
  0.225999996      -4.41061330E-20
  0.226999998       1.40842169E-20
  0.228000000       8.32239080E-20
  0.229000002       1.61928476E-19
  0.230000004       2.48066709E-19
  0.231000006       3.38738836E-19
  0.231999993       4.30291290E-19
  0.232999995       5.18373617E-19
  0.233999997       5.98040881E-19
  0.234999999       6.63904362E-19
  0.236000001       7.10329615E-19
  0.237000003       7.31679612E-19
  0.238000005       7.22597428E-19
  0.238999993       6.78319535E-19
  0.239999995       5.95008954E-19
  0.240999997       4.70094083E-19
  0.241999999       3.02596161E-19
  0.243000001       9.34277108E-20
  0.244000003      -1.54357977E-19
  0.245000005      -4.35386102E-19
  0.246000007      -7.41867582E-19
  0.246999994      -1.06361179E-18
  0.247999996      -1.38815889E-18
  0.248999998      -1.70104358E-18
  0.250000000      -1.98619403E-18
  0.250999987      -2.22646643E-18
  0.252000004      -2.40430778E-18
  0.252999991      -2.50253010E-18
  0.254000008      -2.50517563E-18
  0.254999995      -2.39844141E-18
  0.256000012      -2.17162621E-18
  0.256999999      -1.81805593E-18
  0.257999986      -1.33594239E-18
  0.259000003      -7.29119902E-19
  0.259999990      -7.61399721E-21
  0.261000007       8.12011206E-19
  0.261999995       1.70657007E-18
  0.263000011       2.64647462E-18
  0.263999999       3.59628228E-18
  0.264999986       4.51558930E-18
  0.266000003       5.36026437E-18
  0.266999990       6.08401432E-18
  0.268000007       6.64023373E-18
  0.268999994       6.98409767E-18
  0.270000011       7.07481870E-18
  0.270999998       6.87798653E-18
  0.272000015       6.36788120E-18
  0.273000002       5.52965483E-18
  0.273999989       4.36126222E-18
  0.275000006       2.87501780E-18
  0.275999993       1.09866677E-18
  0.277000010      -9.24133522E-19
  0.277999997      -3.13401301E-18
  0.279000014      -5.45682985E-18
  0.280000001      -7.80539372E-18
  0.280999988      -1.00819710E-17
  0.282000005      -1.21815415E-17
  0.282999992      -1.39957322E-17
  0.284000009      -1.54173132E-17
  0.284999996      -1.63451187E-17
  0.286000013      -1.66891828E-17
  0.287000000      -1.63758948E-17
  0.287999988      -1.53529387E-17
  0.289000005      -1.35937456E-17
  0.289999992      -1.11012213E-17
  0.291000009      -7.91050770E-18
  0.291999996      -4.09054131E-18
  0.293000013       2.55767011E-19
  0.294000000       4.99287624E-18
  0.294999987       9.95556039E-18
  0.296000004       1.49534833E-17
  0.296999991       1.97773293E-17
  0.298000008       2.42063504E-17
  0.298999995       2.80171367E-17
  0.300000012       3.09932863E-17
  0.300999999       3.29356321E-17
  0.301999986       3.36725971E-17
  0.303000003       3.30702177E-17
  0.303999990       3.10413488E-17
  0.305000007       2.75535334E-17
  0.305999994       2.26351109E-17
  0.307000011       1.63790744E-17
  0.307999998       8.94435277E-18
  0.308999985       5.54221195E-19
  0.310000002      -8.50831774E-18
  0.310999990      -1.79082270E-17
  0.312000006      -2.72691024E-17
  0.312999994      -3.61865545E-17
  0.314000010      -4.42439388E-17
  0.314999998      -5.10298572E-17
  0.316000015      -5.61568352E-17
  0.317000002      -5.92803552E-17
  0.317999989      -6.01174223E-17
  0.319000006      -5.84637956E-17
  0.319999993      -5.42089936E-17
  0.321000010      -4.73481591E-17
  0.321999997      -3.79901192E-17
  0.323000014      -2.63608713E-17
  0.324000001      -1.28020973E-17
  0.324999988       2.23567150E-18
  0.326000005       1.82052560E-17
  0.326999992       3.44802529E-17
  0.328000009       5.03772581E-17
  0.328999996       6.51822095E-17
  0.330000013       7.81799367E-17
  0.331000000       8.86857789E-17
  0.331999987       9.60780141E-17
  0.333000004       9.98296356E-17
  0.333999991       9.95379915E-17
  0.335000008       9.49508184E-17
  0.335999995       8.59872246E-17
  0.337000012       7.27523282E-17
  0.338000000       5.55445296E-17
  0.338999987       3.48545356E-17
  0.340000004       1.13557100E-17
  0.340999991      -1.41143449E-17
  0.342000008      -4.05807198E-17
  0.342999995      -6.69659153E-17
  0.344000012      -9.21312377E-17
  0.344999999      -1.14923392E-16
  0.345999986      -1.34224441E-16
  0.347000003      -1.49003101E-16
  0.347999990      -1.58365105E-16
  0.349000007      -1.61600201E-16
  0.349999994      -1.58223637E-16
  0.351000011      -1.48009690E-16
  0.351999998      -1.31015562E-16
  0.352999985      -1.07593824E-16
  0.354000002      -7.83922838E-17
  0.354999989      -4.43406594E-17
  0.356000006      -6.62397053E-18
  0.356999993       3.33568391E-17
  0.358000010       7.40358677E-17
  0.358999997       1.13743078E-16
  0.360000014       1.50772672E-16
  0.361000001       1.83456219E-16
  0.361999989       2.10237455E-16
  0.363000005       2.29745431E-16
  0.363999993       2.40862421E-16
  0.365000010       2.42783492E-16
  0.365999997       2.35064401E-16
  0.367000014       2.17655254E-16
  0.368000001       1.90917666E-16
  0.368999988       1.55624066E-16
  0.370000005       1.12938331E-16
  0.370999992       6.43779914E-17
  0.372000009       1.17589812E-17
  0.372999996      -4.28751203E-17
  0.374000013      -9.73366522E-17
  0.375000000      -1.49386820E-16
  0.375999987      -1.96833966E-16
  0.377000004      -2.37632711E-16
  0.377999991      -2.69979443E-16
  0.379000008      -2.92399320E-16
  0.379999995      -3.03820527E-16
  0.381000012      -3.03631718E-16
  0.381999999      -2.91719471E-16
  0.382999986      -2.68483133E-16
  0.384000003      -2.34825988E-16
  0.384999990      -1.92121988E-16
  0.386000007      -1.42159406E-16
  0.386999995      -8.70632609E-17
  0.388000011      -2.91996411E-17
  0.388999999       2.89336462E-17
  0.389999986       8.48251417E-17
  0.391000003       1.36070906E-16
  0.391999990       1.80492689E-16
  0.393000007       2.16247075E-16
  0.393999994       2.41919810E-16
  0.395000011       2.56600135E-16
  0.395999998       2.59930430E-16
  0.397000015       2.52128409E-16
  0.398000002       2.33979379E-16
  0.398999989       2.06798568E-16
  0.400000006       1.72364389E-16
  0.400999993       1.32825354E-16
  0.402000010       9.05849128E-17
  0.402999997       4.81696685E-17
  0.404000014       8.08768896E-18
  0.405000001      -2.73157902E-17
  0.405999988      -5.59973217E-17
  0.407000005      -7.63410281E-17
  0.407999992      -8.72636768E-17
  0.409000009      -8.82924380E-17
  0.409999996      -7.96098077E-17
  0.411000013      -6.20618393E-17
  0.412000000      -3.71276180E-17
  0.412999988      -6.85000011E-18
  0.414000005       2.62702173E-17
  0.414999992       5.94124196E-17
  0.416000009       8.96002040E-17
  0.416999996       1.13883342E-16
  0.418000013       1.29528014E-16
  0.419000000       1.34204880E-16
  0.419999987       1.26164035E-16
  0.421000004       1.04385998E-16
  0.421999991       6.86986337E-17
  0.423000008       1.98510807E-17
  0.423999995      -4.04620922E-17
  0.425000012      -1.09631183E-16
  0.425999999      -1.84217887E-16
  0.426999986      -2.60096898E-16
  0.428000003      -3.32648182E-16
  0.428999990      -3.96992722E-16
  0.430000007      -4.48260953E-16
  0.430999994      -4.81881808E-16
  0.432000011      -4.93876748E-16
  0.432999998      -4.81143672E-16
  0.433999985      -4.41712885E-16
  0.435000002      -3.74960469E-16
  0.435999990      -2.81762572E-16
  0.437000006      -1.64578753E-16
  0.437999994      -2.74539426E-17
  0.439000010       1.24066941E-16
  0.439999998       2.83113775E-16
  0.441000015       4.41752855E-16
  0.442000002       5.91327729E-16
  0.442999989       7.22867129E-16
  0.444000006       8.27543354E-16
  0.444999993       8.97160886E-16
  0.446000010       9.24651023E-16
  0.446999997       9.04547967E-16
  0.448000014       8.33419116E-16
  0.449000001       7.10223997E-16
  0.449999988       5.36578114E-16
  0.451000005       3.16900331E-16
  0.451999992       5.84274195E-17
  0.453000009      -2.28914916E-16
  0.453999996      -5.32788806E-16
  0.455000013      -8.38865856E-16
  0.456000000      -1.13138381E-15
  0.456999987      -1.39381929E-15
  0.458000004      -1.60965313E-15
  0.458999991      -1.76319522E-15
  0.460000008      -1.84043403E-15
  0.460999995      -1.82987005E-15
  0.462000012      -1.72329033E-15
  0.463000000      -1.51644340E-15
  0.463999987      -1.20957332E-15
  0.465000004      -8.07777682E-16
  0.465999991      -3.21159027E-16
  0.467000008       2.35251304E-16
  0.467999995       8.41810036E-16
  0.469000012       1.47482010E-15
  0.469999999       2.10732099E-15
  0.470999986       2.71008975E-15
  0.472000003       3.25281870E-15
  0.472999990       3.70542779E-15
  0.474000007       4.03945862E-15
  0.474999994       4.22948962E-15
  0.476000011       4.25451139E-15
  0.476999998       4.09918969E-15
  0.477999985       3.75496101E-15
  0.479000002       3.22088916E-15
  0.479999989       2.50423618E-15
  0.481000006       1.62070278E-15
  0.481999993       5.94305368E-16
  0.483000010      -5.43123773E-16
  0.483999997      -1.75281366E-15
  0.485000014      -2.99029164E-15
  0.486000001      -4.20694541E-15
  0.486999989      -5.35185740E-15
  0.488000005      -6.37384458E-15
  0.488999993      -7.22362826E-15
  0.490000010      -7.85603831E-15
  0.490999997      -8.23216160E-15
  0.492000014      -8.32133214E-15
  0.493000001      -8.10287472E-15
  0.493999988      -7.56750331E-15
  0.495000005      -6.71830408E-15
  0.495999992      -5.57123851E-15
  0.497000009      -4.15511758E-15
  0.497999996      -2.51102938E-15
  0.499000013      -6.91213984E-16
  0.500000000       1.24258315E-15
  0.500999987       3.22123813E-15
  0.501999974       5.17077870E-15
  0.503000021       7.01522894E-15
  0.504000008       8.67965588E-15
  0.504999995       1.00932988E-14
  0.505999982       1.11926451E-14
  0.507000029       1.19243181E-14
  0.508000016       1.22476517E-14
  0.509000003       1.21368234E-14
  0.509999990       1.15824378E-14
  0.510999978       1.05924740E-14
  0.512000024       9.19253772E-15
  0.513000011       7.42537627E-15
  0.513999999       5.34965765E-15
  0.514999986       3.03803952E-15
  0.515999973       5.74587341E-16
  0.517000020      -1.94836509E-15
  0.518000007      -4.43379862E-15
  0.518999994      -6.78389238E-15
  0.519999981      -8.90405100E-15
  0.521000028      -1.07069098E-14
  0.522000015      -1.21161388E-14
  0.523000002      -1.30698827E-14
  0.523999989      -1.35236755E-14
  0.524999976      -1.34526925E-14
  0.526000023      -1.28532252E-14
  0.527000010      -1.17432919E-14
  0.527999997      -1.01623464E-14
  0.528999984      -8.17006137E-15
  0.529999971      -5.84423087E-15
  0.531000018      -3.27784725E-15
  0.532000005      -5.75474184E-16
  0.532999992       2.15095335E-15
  0.533999979       4.78673057E-15
  0.535000026       7.21919489E-15
  0.536000013       9.34254471E-15
  0.537000000       1.10624620E-14
  0.537999988       1.23003245E-14
  0.538999975       1.29968261E-14
  0.540000021       1.31148390E-14
  0.541000009       1.26413670E-14
  0.541999996       1.15885059E-14
  0.542999983       9.99333368E-15
  0.544000030       7.91673584E-15
  0.545000017       5.44117872E-15
  0.546000004       2.66752804E-15
  0.546999991      -2.88976593E-16
  0.547999978      -3.30342447E-15
  0.549000025      -6.24642160E-15
  0.550000012      -8.98954458E-15
  0.550999999      -1.14108272E-14
  0.551999986      -1.34000451E-14
  0.552999973      -1.48635597E-14
  0.554000020      -1.57285091E-14
  0.555000007      -1.59461626E-14
  0.555999994      -1.54942638E-14
  0.556999981      -1.43782759E-14
  0.558000028      -1.26314356E-14
  0.559000015      -1.03136222E-14
  0.560000002      -7.50906990E-15
  0.560999990      -4.32301561E-15
  0.561999977      -8.77420148E-16
  0.563000023       2.69406029E-15
  0.564000010       6.25163339E-15
  0.564999998       9.65522438E-15
  0.565999985       1.27703642E-14
  0.566999972       1.54738622E-14
  0.568000019       1.76590039E-14
  0.569000006       1.92400417E-14
  0.569999993       2.01557944E-14
  0.570999980       2.03721673E-14
  0.572000027       1.98835004E-14
  0.573000014       1.87126671E-14
  0.574000001       1.69099286E-14
  0.574999988       1.45505929E-14
  0.575999975       1.17315656E-14
  0.577000022       8.56697254E-15
  0.578000009       5.18303484E-15
  0.578999996       1.71243349E-15
  0.579999983      -1.71157597E-15
  0.580999970      -4.96103555E-15
  0.582000017      -7.91887206E-15
  0.583000004      -1.04839369E-14
  0.583999991      -1.25752815E-14
  0.584999979      -1.41354518E-14
  0.586000025      -1.51326654E-14
  0.587000012      -1.55617605E-14
  0.588000000      -1.54438738E-14
  0.588999987      -1.48248757E-14
  0.589999974      -1.37726244E-14
  0.591000021      -1.23731710E-14
  0.592000008      -1.07261036E-14
  0.592999995      -8.93925115E-15
  0.593999982      -7.12300160E-15
  0.595000029      -5.38450713E-15
  0.596000016      -3.82206126E-15
  0.597000003      -2.51992619E-15
  0.597999990      -1.54386249E-15
  0.598999977      -9.37588816E-16
  0.600000024      -7.20353717E-16
  0.601000011      -8.85750400E-16
  0.601999998      -1.40184705E-15
  0.602999985      -2.21264128E-15
  0.603999972      -3.24078596E-15
  0.605000019      -4.39146942E-15
  0.606000006      -5.55727559E-15
  0.606999993      -6.62380527E-15
  0.607999980      -7.47578997E-15
  0.609000027      -8.00340849E-15
  0.610000014      -8.10850918E-15
  0.611000001      -7.71041471E-15
  0.611999989      -6.75103555E-15
  0.612999976      -5.19901623E-15
  0.614000022      -3.05269700E-15
  0.615000010      -3.41712334E-16
  0.615999997       2.87287360E-15
  0.616999984       6.49994957E-15
  0.617999971       1.04212225E-14
  0.619000018       1.44954798E-14
  0.620000005       1.85640806E-14
  0.620999992       2.24574438E-14
  0.621999979       2.60022801E-14
  0.623000026       2.90292387E-14
  0.624000013       3.13806395E-14
  0.625000000       3.29179331E-14
  0.625999987       3.35285456E-14
  0.626999974       3.31317988E-14
  0.628000021       3.16836096E-14
  0.629000008       2.91797057E-14
  0.629999995       2.56572294E-14
  0.630999982       2.11945888E-14
  0.632000029       1.59095268E-14
  0.633000016       9.95546283E-15
  0.634000003       3.51622646E-15
  0.634999990      -3.20062283E-15
  0.635999978      -9.97162422E-15
  0.637000024      -1.65660773E-14
  0.638000011      -2.27551810E-14
  0.638999999      -2.83212683E-14
  0.639999986      -3.30667331E-14
  0.640999973      -3.68222807E-14
  0.642000020      -3.94541171E-14
  0.643000007      -4.08697802E-14
  0.643999994      -4.10223342E-14
  0.644999981      -3.99127244E-14
  0.646000028      -3.75901635E-14
  0.647000015      -3.41505524E-14
  0.648000002      -2.97329097E-14
  0.648999989      -2.45140009E-14
  0.649999976      -1.87013491E-14
  0.651000023      -1.25248983E-14
  0.652000010      -6.22769497E-15
  0.652999997      -5.59440777E-17
  0.653999984       5.75112544E-15
  0.654999971       1.09711697E-14
  0.656000018       1.54079901E-14
  0.657000005       1.88997547E-14
  0.657999992       2.13258129E-14
  0.658999979       2.26118224E-14
  0.660000026       2.27329531E-14
  0.661000013       2.17150127E-14
  0.662000000       1.96334478E-14
  0.662999988       1.66102382E-14
  0.663999975       1.28088111E-14
  0.665000021       8.42716976E-15
  0.666000009       3.68952263E-15
  0.666999996      -1.16324316E-15
  0.667999983      -5.88385169E-15
  0.669000030      -1.02292552E-14
  0.670000017      -1.39711410E-14
  0.671000004      -1.69058696E-14
  0.671999991      -1.88634441E-14
  0.672999978      -1.97151018E-14
  0.674000025      -1.93792194E-14
  0.675000012      -1.78252629E-14
  0.675999999      -1.50756228E-14
  0.676999986      -1.12052134E-14
  0.677999973      -6.33888329E-15
  0.679000020      -6.46701185E-16
  0.680000007       5.66267741E-15
  0.680999994       1.23502986E-14
  0.681999981       1.91565141E-14
  0.683000028       2.58114961E-14
  0.684000015       3.20462481E-14
  0.685000002       3.76036110E-14
  0.685999990       4.22488548E-14
  0.686999977       4.57793593E-14
  0.688000023       4.80330260E-14
  0.689000010       4.88950074E-14
  0.689999998       4.83025248E-14
  0.690999985       4.62475212E-14
  0.691999972       4.27770646E-14
  0.693000019       3.79914504E-14
  0.694000006       3.20401020E-14
  0.694999993       2.51154417E-14
  0.695999980       1.74449620E-14
  0.697000027       9.28185226E-15
  0.698000014       8.94575424E-16
  0.699000001      -7.44416769E-15
  0.699999988      -1.54686139E-14
  0.700999975      -2.29307743E-14
  0.702000022      -2.96104524E-14
  0.703000009      -3.53240386E-14
  0.703999996      -3.99316505E-14
  0.704999983      -4.33423710E-14
  0.705999970      -4.55172670E-14
  0.707000017      -4.64701316E-14
  0.708000004      -4.62658476E-14
  0.708999991      -4.50164774E-14
  0.709999979      -4.28751950E-14
  0.711000025      -4.00283749E-14
  0.712000012      -3.66861354E-14
  0.713000000      -3.30717712E-14
  0.713999987      -2.94105526E-14
  0.714999974      -2.59183527E-14
  0.716000021      -2.27906734E-14
  0.717000008      -2.01925353E-14
  0.717999995      -1.82497314E-14
  0.718999982      -1.70418455E-14
  0.720000029      -1.65974107E-14
  0.721000016      -1.68914531E-14
  0.722000003      -1.78455900E-14
  0.722999990      -1.93307352E-14
  0.723999977      -2.11723424E-14
  0.725000024      -2.31580180E-14
  0.726000011      -2.50472064E-14
  0.726999998      -2.65825722E-14
  0.727999985      -2.75026041E-14
  0.728999972      -2.75549118E-14
  0.730000019      -2.65096240E-14
  0.731000006      -2.41723010E-14
  0.731999993      -2.03957538E-14
  0.732999980      -1.50902172E-14
  0.734000027      -8.23135522E-15
  0.735000014       1.34314809E-16
  0.736000001       9.88692516E-15
  0.736999989       2.08338985E-14
  0.737999976       3.27138016E-14
  0.739000022       4.52033769E-14
  0.740000010       5.79275600E-14
  0.740999997       7.04721519E-14
  0.741999984       8.23987349E-14
  0.742999971       9.32612413E-14
  0.744000018       1.02623578E-13
  0.745000005       1.10077569E-13
  0.745999992       1.15260503E-13
  0.746999979       1.17871546E-13
  0.748000026       1.17686338E-13
  0.749000013       1.14568958E-13
  0.750000000       1.08480939E-13
  0.750999987       9.94866353E-14
  0.751999974       8.77547208E-14
  0.753000021       7.35556364E-14
  0.754000008       5.72549549E-14
  0.754999995       3.93027624E-14
  0.755999982       2.02194405E-14
  0.757000029       5.78273999E-16
  0.758000016      -1.90145039E-14
  0.759000003      -3.79414992E-14
  0.759999990      -5.55969557E-14
  0.760999978      -7.14097022E-14
  0.762000024      -8.48653287E-14
  0.763000011      -9.55267156E-14
  0.763999999      -1.03052000E-13
  0.764999986      -1.07209380E-13
  0.765999973      -1.07887881E-13
  0.767000020      -1.05103751E-13
  0.768000007      -9.90021189E-14
  0.768999994      -8.98536548E-14
  0.769999981      -7.80464086E-14
  0.771000028      -6.40729941E-14
  0.772000015      -4.85135444E-14
  0.773000002      -3.20150502E-14
  0.773999989      -1.52678366E-14
  0.774999976       1.01991894E-15
  0.776000023       1.61486967E-14
  0.777000010       2.94541105E-14
  0.777999997       4.03323005E-14
  0.778999984       4.82632665E-14
  0.779999971       5.28311593E-14
  0.781000018       5.37407067E-14
  0.782000005       5.08291122E-14
  0.782999992       4.40728861E-14
  0.783999979       3.35892575E-14
  0.785000026       1.96321671E-14
  0.786000013       2.58285375E-15
  0.787000000      -1.70645866E-14
  0.787999988      -3.87221315E-14
  0.788999975      -6.17305347E-14
  0.790000021      -8.53849055E-14
  0.791000009      -1.08962217E-13
  0.791999996      -1.31749551E-13
  0.792999983      -1.53072040E-13
  0.794000030      -1.72319421E-13
  0.795000017      -1.88969947E-13
  0.796000004      -2.02610986E-13
  0.796999991      -2.12955128E-13
  0.797999978      -2.19851454E-13
  0.799000025      -2.23291383E-13
  0.800000012      -2.23408721E-13
  0.800999999      -2.20474233E-13
  0.801999986      -2.14884561E-13
  0.802999973      -2.07146325E-13
  0.804000020      -1.97855797E-13
  0.805000007      -1.87675057E-13
  0.805999994      -1.77305639E-13
  0.806999981      -1.67460704E-13
  0.808000028      -1.58836974E-13
  0.809000015      -1.52087395E-13
  0.810000002      -1.47795852E-13
  0.810999990      -1.46454734E-13
  0.811999977      -1.48446576E-13
  0.813000023      -1.54030136E-13
  0.814000010      -1.63331710E-13
  0.814999998      -1.76342000E-13
  0.815999985      -1.92918422E-13
  0.816999972      -2.12792959E-13
  0.818000019      -2.35585016E-13
  0.819000006      -2.60818737E-13
  0.819999993      -2.87944066E-13
  0.820999980      -3.16360572E-13
  0.822000027      -3.45442967E-13
  0.823000014      -3.74567266E-13
  0.824000001      -4.03136454E-13
  0.824999988      -4.30604581E-13
  0.825999975      -4.56498121E-13
  0.827000022      -4.80434052E-13
  0.828000009      -5.02133166E-13
  0.828999996      -5.21429254E-13
  0.829999983      -5.38272552E-13
  0.830999970      -5.52728056E-13
  0.832000017      -5.64969078E-13
  0.833000004      -5.75265313E-13
  0.833999991      -5.83967445E-13
  0.834999979      -5.91487525E-13
  0.836000025      -5.98277558E-13
  0.837000012      -6.04805865E-13
  0.838000000      -6.11533339E-13
  0.838999987      -6.18890193E-13
  0.839999974      -6.27254596E-13
  0.841000021      -6.36933702E-13
  0.842000008      -6.48148364E-13
  0.842999995      -6.61022398E-13
  0.843999982      -6.75576023E-13
  0.845000029      -6.91725269E-13
  0.846000016      -7.09285603E-13
  0.847000003      -7.27981152E-13
  0.847999990      -7.47458410E-13
  0.848999977      -7.67303864E-13
  0.850000024      -7.87064858E-13
  0.851000011      -8.06272692E-13
  0.851999998      -8.24466960E-13
  0.852999985      -8.41220106E-13
  0.853999972      -8.56160683E-13
  0.855000019      -8.68994763E-13
  0.856000006      -8.79523993E-13