   0.00000000       0.00000000    
   1.00000005E-03   0.00000000    
   2.00000009E-03   0.00000000    
   3.00000003E-03   0.00000000    
   4.00000019E-03   0.00000000    
   4.99999989E-03   0.00000000    
   6.00000005E-03   0.00000000    
   7.00000022E-03   0.00000000    
   8.00000038E-03   0.00000000    
   8.99999961E-03   0.00000000    
   9.99999978E-03   0.00000000    
   1.09999999E-02   0.00000000    
   1.20000001E-02   0.00000000    
   1.30000003E-02  -1.38221138E-38
   1.40000004E-02  -1.48778661E-37
   1.49999997E-02  -7.62131213E-37
   1.60000008E-02  -3.14912705E-36
   1.70000009E-02  -1.14261279E-35
   1.79999992E-02  -3.75050714E-35
   1.89999994E-02  -1.12991628E-34
   1.99999996E-02  -3.15873906E-34
   2.09999997E-02  -8.26398243E-34
   2.19999999E-02  -2.03732254E-33
   2.30000000E-02  -4.75932463E-33
   2.40000002E-02  -1.05840321E-32
   2.50000004E-02  -2.24938999E-32
   2.60000005E-02  -4.58355369E-32
   2.70000007E-02  -8.97940504E-32
   2.80000009E-02  -1.69504099E-31
   2.89999992E-02  -3.08884321E-31
   2.99999993E-02  -5.44150065E-31
   3.09999995E-02  -9.27695252E-31
   3.20000015E-02  -1.53158149E-30
   3.29999998E-02  -2.44916298E-30
   3.40000018E-02  -3.79235392E-30
   3.50000001E-02  -5.68066880E-30
   3.59999985E-02  -8.21645123E-30
   3.70000005E-02  -1.14387306E-29
   3.79999988E-02  -1.52461384E-29
   3.90000008E-02  -1.92776093E-29
   3.99999991E-02  -2.27388094E-29
   4.10000011E-02  -2.41631188E-29
   4.19999994E-02  -2.10996414E-29
   4.30000015E-02  -9.72831827E-30
   4.39999998E-02   1.55848057E-29
   4.50000018E-02   6.27595208E-29
   4.60000001E-02   1.42440515E-28
   4.69999984E-02   2.68308041E-28
   4.80000004E-02   4.57121302E-28
   4.89999987E-02   7.28306731E-28
   5.00000007E-02   1.10285335E-27
   5.09999990E-02   1.60123077E-27
   5.20000011E-02   2.24001484E-27
   5.29999994E-02   3.02689974E-27
   5.40000014E-02   3.95381323E-27
   5.49999997E-02   4.98794747E-27
   5.60000017E-02   6.06068814E-27
   5.70000000E-02   7.05469679E-27
   5.79999983E-02   7.78977187E-27
   5.90000004E-02   8.00861452E-27
   5.99999987E-02   7.36421916E-27
   6.10000007E-02   5.41130077E-27
   6.19999990E-02   1.60492576E-27
   6.30000010E-02  -4.68976845E-27
   6.40000030E-02  -1.41722544E-26
   6.49999976E-02  -2.75607847E-26
   6.59999996E-02  -4.55211292E-26
   6.70000017E-02  -6.85654356E-26
   6.80000037E-02  -9.69180580E-26
   6.89999983E-02  -1.30347321E-25
   7.00000003E-02  -1.67965262E-25
   7.10000023E-02  -2.08001815E-25
   7.19999969E-02  -2.47565358E-25
   7.29999989E-02  -2.82408063E-25
   7.40000010E-02  -3.06721717E-25
   7.50000030E-02  -3.12997771E-25
   7.59999976E-02  -2.91992599E-25
   7.69999996E-02  -2.32845658E-25
   7.80000016E-02  -1.23402830E-25
   7.90000036E-02   4.92019049E-26
   7.99999982E-02   2.97656251E-25
   8.10000002E-02   6.33230334E-25
   8.20000023E-02   1.06416409E-24
   8.29999968E-02   1.59368195E-24
   8.39999989E-02   2.21767023E-24
   8.50000009E-02   2.92209304E-24
   8.60000029E-02   3.68027673E-24
   8.69999975E-02   4.45024836E-24
   8.79999995E-02   5.17237794E-24
   8.90000015E-02   5.76763029E-24
   9.00000036E-02   6.13679432E-24
   9.09999982E-02   6.16109676E-24
   9.20000002E-02   5.70463383E-24
   9.30000022E-02   4.61904329E-24
   9.39999968E-02   2.75080590E-24
   9.49999988E-02  -4.85238204E-26
   9.60000008E-02  -3.90899787E-24
   9.70000029E-02  -8.92589882E-24
   9.79999974E-02  -1.51405853E-23
   9.89999995E-02  -2.25191516E-23
  0.100000001      -3.09298319E-23
  0.101000004      -4.01204875E-23
  0.101999998      -4.96978647E-23
  0.103000000      -5.91107550E-23
  0.104000002      -6.76394647E-23
  0.104999997      -7.43942282E-23
  0.105999999      -7.83254376E-23
  0.107000001      -7.82482996E-23
  0.108000003      -7.28844115E-23
  0.108999997      -6.09221374E-23
  0.109999999      -4.10968764E-23
  0.111000001      -1.22911376E-23
  0.112000003       2.63469871E-23
  0.112999998       7.52701225E-23
  0.114000000       1.34387731E-22
  0.115000002       2.02919145E-22
  0.115999997       2.79252595E-22
  0.116999999       3.60821419E-22
  0.118000001       4.44010095E-22
  0.119000003       5.24104342E-22
  0.119999997       5.95299531E-22
  0.120999999       6.50781722E-22
  0.122000001       6.82894444E-22
  0.123000003       6.83401436E-22
  0.123999998       6.43852014E-22
  0.125000000       5.56050356E-22
  0.126000002       4.12624311E-22
  0.127000004       2.07680457E-22
  0.128000006      -6.24751710E-23
  0.128999993      -3.98580492E-22
  0.129999995      -7.97664492E-22
  0.130999997      -1.25234579E-21
  0.131999999      -1.75023663E-21
  0.133000001      -2.27351480E-21
  0.134000003      -2.79872582E-21
  0.135000005      -3.29687697E-21
  0.136000007      -3.73388359E-21
  0.136999995      -4.07141609E-21
  0.137999997      -4.26817926E-21
  0.138999999      -4.28164437E-21
  0.140000001      -4.07021894E-21
  0.141000003      -3.59582077E-21
  0.142000005      -2.82678433E-21
  0.143000007      -1.74099608E-21
  0.143999994      -3.29121453E-22
  0.144999996       1.40225037E-21
  0.145999998       3.42774073E-21
  0.147000000       5.70081933E-21
  0.148000002       8.15217513E-21
  0.149000004       1.06890646E-20
  0.150000006       1.31958540E-20
  0.150999993       1.55359528E-20
  0.151999995       1.75552865E-20
  0.152999997       1.90873978E-20
  0.153999999       1.99601897E-20
  0.155000001       2.00042112E-20
  0.156000003       1.90623142E-20
  0.157000005       1.70003710E-20
  0.158000007       1.37186354E-20
  0.158999994       9.16322571E-21
  0.159999996       3.33711054E-21
  0.160999998      -3.69011007E-21
  0.162000000      -1.17743732E-20
  0.163000003      -2.06920426E-20
  0.164000005      -3.01382578E-20
  0.165000007      -3.97294170E-20
  0.165999994      -4.90103188E-20
  0.166999996      -5.74663633E-20
  0.167999998      -6.45409482E-20
  0.169000000      -6.96579198E-20
  0.170000002      -7.22486818E-20
  0.171000004      -7.17832312E-20
  0.172000006      -6.78039690E-20
  0.172999993      -5.99609461E-20
  0.173999995      -4.80468247E-20
  0.174999997      -3.20295675E-20
  0.175999999      -1.20808016E-20
  0.177000001       1.14023988E-20
  0.178000003       3.77844342E-20
  0.179000005       6.61888407E-20
  0.180000007       9.55083673E-20
  0.180999994       1.24428747E-19
  0.181999996       1.51466903E-19
  0.182999998       1.75023611E-19
  0.184000000       1.93449705E-19
  0.185000002       2.05124494E-19
  0.186000004       2.08543529E-19
  0.187000006       2.02412660E-19
  0.187999994       1.85744027E-19
  0.188999996       1.57949065E-19
  0.189999998       1.18923408E-19
  0.191000000       6.91177063E-20
  0.192000002       9.58896443E-21
  0.193000004      -5.79731083E-20
  0.194000006      -1.31249394E-19
  0.194999993      -2.07328116E-19
  0.195999995      -2.82777405E-19
  0.196999997      -3.53754646E-19
  0.197999999      -4.16151283E-19
  0.199000001      -4.65770359E-19
  0.200000003      -4.98531415E-19
  0.201000005      -5.10695055E-19
  0.202000007      -4.99098655E-19
  0.202999994      -4.61391006E-19
  0.203999996      -3.96254669E-19
  0.204999998      -3.03601625E-19
  0.206000000      -1.84729619E-19
  0.207000002      -4.24255120E-20
  0.208000004       1.18995876E-19
  0.209000006       2.93727183E-19
  0.209999993       4.74585519E-19
  0.210999995       6.53214448E-19
  0.211999997       8.20370279E-19
  0.213000000       9.66287886E-19
  0.214000002       1.08111638E-18
  0.215000004       1.15540960E-18
  0.216000006       1.18065247E-18
  0.216999993       1.14980028E-18
  0.217999995       1.05780415E-18
  0.218999997       9.02093501E-19
  0.219999999       6.82987264E-19
  0.221000001       4.04003257E-19
  0.222000003       7.20390109E-20
  0.223000005      -3.02598514E-19
  0.224000007      -7.06332885E-19
  0.224999994      -1.12263857E-18
  0.225999996      -1.53254451E-18
  0.226999998      -1.91531396E-18
  0.228000000      -2.24928565E-18
  0.229000002      -2.51284732E-18
  0.230000004      -2.68550865E-18
  0.231000006      -2.74902827E-18
  0.231999993      -2.68854089E-18
  0.232999995      -2.49363046E-18
  0.233999997      -2.15928737E-18
  0.234999999      -1.68669292E-18
  0.236000001      -1.08377018E-18
  0.237000003      -3.65455607E-19
  0.238000005       4.46350898E-19
  0.238999993       1.32318427E-18
  0.239999995       2.23077376E-18
  0.240999997       3.13015690E-18
  0.241999999       3.97912587E-18
  0.243000001       4.73396085E-18
  0.244000003       5.35139203E-18
  0.245000005       5.79070766E-18
  0.246000007       6.01591750E-18
  0.246999994       5.99786842E-18
  0.247999996       5.71620143E-18
  0.248999998       5.16103627E-18
  0.250000000       4.33428331E-18
  0.250999987       3.25048066E-18
  0.252000004       1.93708122E-18
  0.252999991       4.34130700E-19
  0.254000008      -1.20669284E-18
  0.254999995      -2.92367835E-18
  0.256000012      -4.64728804E-18
  0.256999999      -6.30290203E-18
  0.257999986      -7.81400302E-18
  0.259000003      -9.10566953E-18
  0.259999990      -1.01082273E-17
  0.261000007      -1.07608770E-17
  0.261999995      -1.10151167E-17
  0.263000011      -1.08377758E-17
  0.263999999      -1.02134679E-17
  0.264999986      -9.14631057E-18
  0.266000003      -7.66077194E-18
  0.266999990      -5.80154786E-18
  0.268000007      -3.63241435E-18
  0.268999994      -1.23405773E-18
  0.270000011       1.29907071E-18
  0.270999998       3.86276265E-18
  0.272000015       6.34776334E-18
  0.273000002       8.64497460E-18
  0.273999989       1.06509000E-17
  0.275000006       1.22730516E-17
  0.275999993       1.34350262E-17
  0.277000010       1.40809516E-17
  0.277999997       1.41790321E-17
  0.279000014       1.37239347E-17
  0.280000001       1.27378378E-17
  0.280999988       1.12699959E-17
  0.282000005       9.39476998E-18
  0.282999992       7.20814864E-18
  0.284000009       4.82288152E-18
  0.284999996       2.36242866E-18
  0.286000013      -4.59907574E-20
  0.287000000      -2.27888652E-18
  0.287999988      -4.22410823E-18
  0.289000005      -5.78812809E-18
  0.289999992      -6.90253270E-18
  0.291000009      -7.52927421E-18
  0.291999996      -7.66428002E-18
  0.293000013      -7.33907561E-18
  0.294000000      -6.62018866E-18
  0.294999987      -5.60620833E-18
  0.296000004      -4.42250460E-18
  0.296999991      -3.21377121E-18
  0.298000008      -2.13468805E-18
  0.298999995      -1.33914896E-18
  0.300000012      -9.68623017E-19
  0.300999999      -1.14032203E-18
  0.301999986      -1.93591986E-18
  0.303000003      -3.39160016E-18
  0.303999990      -5.49019790E-18
  0.305000007      -8.15614642E-18
  0.305999994      -1.12538270E-17
  0.307000011      -1.45897819E-17
  0.307999998      -1.79190316E-17
  0.308999985      -2.09555521E-17
  0.310000002      -2.33866657E-17
  0.310999990      -2.48908903E-17
  0.312000006      -2.51584982E-17
  0.312999994      -2.39138014E-17
  0.314000010      -2.09380059E-17
  0.314999998      -1.60912702E-17
  0.316000015      -9.33256600E-18
  0.317000002      -7.35874969E-19
  0.317999989       9.49864401E-18
  0.319000006       2.10397574E-17
  0.319999993       3.34275233E-17
  0.321000010       4.60835918E-17
  0.321999997       5.83297328E-17
  0.323000014       6.94144361E-17
  0.324000001       7.85469534E-17
  0.324999988       8.49376648E-17
  0.326000005       8.78431532E-17
  0.326999992       8.66140091E-17
  0.328000009       8.07428929E-17
  0.328999996       6.99103011E-17
  0.330000013       5.40251610E-17
  0.331000000       3.32575013E-17
  0.331999987       8.06053096E-18
  0.333000004      -2.08202038E-17
  0.333999991      -5.23524463E-17
  0.335000008      -8.52388909E-17
  0.335999995      -1.17955399E-16
  0.337000012      -1.48805451E-16
  0.338000000      -1.75989544E-16
  0.338999987      -1.97687484E-16
  0.340000004      -2.12150387E-16
  0.340999991      -2.17798746E-16
  0.342000008      -2.13321793E-16
  0.342999995      -1.97773273E-16
  0.344000012      -1.70658226E-16
  0.344999999      -1.32005479E-16
  0.345999986      -8.24206203E-17
  0.347000003      -2.31150444E-17
  0.347999990       4.40928890E-17
  0.349000007       1.16807101E-16
  0.349999994       1.92114855E-16
  0.351000011       2.66679509E-16
  0.351999998       3.36863124E-16
  0.352999985       3.98875438E-16
  0.354000002       4.48944244E-16
  0.354999989       4.83500329E-16
  0.356000006       4.99369280E-16
  0.356999993       4.93961186E-16
  0.358000010       4.65448310E-16
  0.358999997       4.12921415E-16
  0.360000014       3.36514808E-16
  0.361000001       2.37491759E-16
  0.361999989       1.18282288E-16
  0.363000005      -1.75319657E-17
  0.363999993      -1.65289626E-16
  0.365000010      -3.19379199E-16
  0.365999997      -4.73424714E-16
  0.367000014      -6.20522679E-16
  0.368000001      -7.53523051E-16
  0.368999988      -8.65343682E-16
  0.370000005      -9.49306246E-16
  0.370999992      -9.99477808E-16
  0.372000009      -1.01100370E-15
  0.372999996      -9.80413531E-16
  0.374000013      -9.05883949E-16
  0.375000000      -7.87443385E-16
  0.375999987      -6.27103437E-16
  0.377000004      -4.28906303E-16
  0.377999991      -1.98879683E-16
  0.379000008       5.51048434E-17
  0.379999995       3.23570000E-16
  0.381000012       5.95762741E-16
  0.381999999       8.60065873E-16
  0.382999986       1.10447792E-15
  0.384000003       1.31714195E-15
  0.384999990       1.48690196E-15
  0.386000007       1.60386123E-15
  0.386999995       1.65991670E-15
  0.388000011       1.64924282E-15
  0.388999999       1.56869644E-15
  0.389999986       1.41812120E-15
  0.391000003       1.20052881E-15
  0.391999990       9.22141265E-16
  0.393000007       5.92284506E-16
  0.393999994       2.23128172E-16
  0.395000011      -1.70723726E-16
  0.395999998      -5.72781678E-16
  0.397000015      -9.65339945E-16
  0.398000002      -1.33024227E-15
  0.398999989      -1.64971154E-15
  0.400000006      -1.90720818E-15
  0.400999993      -2.08827693E-15
  0.402000010      -2.18134129E-15
  0.402999997      -2.17840378E-15
  0.404000014      -2.07561294E-15
  0.405000001      -1.87366208E-15
  0.405999988      -1.57799242E-15
  0.407000005      -1.19877735E-15
  0.407999992      -7.50678397E-16
  0.409000009      -2.52371773E-16
  0.409999996       2.74144993E-16
  0.411000013       8.04444501E-16
  0.412000000       1.31272647E-15
  0.412999988       1.77299814E-15
  0.414000005       2.16032810E-15
  0.414999992       2.45211591E-15
  0.416000009       2.62931669E-15
  0.416999996       2.67755903E-15
  0.418000013       2.58809752E-15
  0.419000000       2.35854037E-15
  0.419999987       1.99330887E-15
  0.421000004       1.50379000E-15
  0.421999991       9.08156539E-16
  0.423000008       2.30848401E-16
  0.423999995      -4.98281054E-16
  0.425000012      -1.24512827E-15
  0.425999999      -1.97277404E-15
  0.426999986      -2.64313370E-15
  0.428000003      -3.21875548E-15
  0.428999990      -3.66468635E-15
  0.430000007      -3.95032069E-15
  0.430999994      -4.05113921E-15
  0.432000011      -3.95024953E-15
  0.432999998      -3.63964298E-15
  0.433999985      -3.12109152E-15
  0.435000002      -2.40662199E-15
  0.435999990      -1.51852192E-15
  0.437000006      -4.88852572E-16
  0.437999994       6.41535078E-16
  0.439000010       1.82445942E-15
  0.439999998       3.00629929E-15
  0.441000015       4.13024742E-15
  0.442000002       5.13883920E-15
  0.442999989       5.97664965E-15
  0.444000006       6.59304061E-15
  0.444999993       6.94482737E-15
  0.446000010       6.99873551E-15
  0.446999997       6.73352102E-15
  0.448000014       6.14163431E-15
  0.449000001       5.23032765E-15
  0.449999988       4.02212494E-15
  0.451000005       2.55459885E-15
  0.451999992       8.79433122E-16
  0.453000009      -9.39225072E-16
  0.453999996      -2.82707686E-15
  0.455000013      -4.70257361E-15
  0.456000000      -6.48030307E-15
  0.456999987      -8.07472189E-15
  0.458000004      -9.40408081E-15
  0.458999991      -1.03943657E-14
  0.460000008      -1.09830739E-14
  0.460999995      -1.11226437E-14
  0.462000012      -1.07833571E-14
  0.463000000      -9.95556278E-15
  0.463999987      -8.65108376E-15
  0.465000004      -6.90370477E-15
  0.465999991      -4.76868072E-15
  0.467000008      -2.32124022E-15
  0.467999995       3.45884289E-16
  0.469000012       3.12583681E-15
  0.469999999       5.90180582E-15
  0.470999986       8.55182675E-15
  0.472000003       1.09540224E-14
  0.472999990       1.29920649E-14
  0.474000007       1.45606116E-14
  0.474999994       1.55704764E-14
  0.476000011       1.59532777E-14
  0.476999998       1.56653424E-14
  0.477999985       1.46906531E-14
  0.479000002       1.30426718E-14
  0.479999989       1.07649019E-14
  0.481000006       7.93014099E-15
  0.481999993       4.63838079E-15
  0.483000010       1.01342262E-15
  0.483999997      -2.80169912E-15
  0.485000014      -6.65031571E-15
  0.486000001      -1.03685278E-14
  0.486999989      -1.37921545E-14
  0.488000005      -1.67639357E-14
  0.488999993      -1.91406661E-14
  0.490000010      -2.07999426E-14
  0.490999997      -2.16462082E-14
  0.492000014      -2.16158014E-14
  0.493000001      -2.06807380E-14
  0.493999988      -1.88510503E-14
  0.495000005      -1.61754917E-14
  0.495999992      -1.27405588E-14
  0.497000009      -8.66782367E-15
  0.497999996      -4.10962768E-15
  0.499000013       7.56696883E-16
  0.500000000       5.73586444E-15
  0.500999987       1.06226546E-14
  0.501999974       1.52105721E-14
  0.503000021       1.93007841E-14
  0.504000008       2.27109337E-14
  0.504999995       2.52834405E-14
  0.505999982       2.68928946E-14
  0.507000029       2.74521972E-14
  0.508000016       2.69171485E-14
  0.509000003       2.52892342E-14
  0.509999990       2.26164472E-14
  0.510999978       1.89920745E-14
  0.512000024       1.45514585E-14
  0.513000011       9.46682562E-15
  0.513999999       3.94039685E-15
  0.514999986      -1.80395360E-15
  0.515999973      -7.53014323E-15
  0.517000020      -1.30000169E-14
  0.518000007      -1.79837343E-14
  0.518999994      -2.22699429E-14
  0.519999981      -2.56752661E-14
  0.521000028      -2.80526843E-14
  0.522000015      -2.92983851E-14
  0.523000002      -2.93567627E-14
  0.523999989      -2.82233360E-14
  0.524999976      -2.59453663E-14
  0.526000023      -2.26201741E-14
  0.527000010      -1.83911673E-14
  0.527999997      -1.34417429E-14
  0.528999984      -7.98731571E-15
  0.529999971      -2.26582076E-15
  0.531000018       3.47289967E-15
  0.532000005       8.97833918E-15
  0.532999992       1.40106907E-14
  0.533999979       1.83518040E-14
  0.535000026       2.18152285E-14
  0.536000013       2.42548545E-14
  0.537000000       2.55717553E-14
  0.537999988       2.57188595E-14
  0.538999975       2.47032517E-14
  0.540000021       2.25859421E-14
  0.541000009       1.94791066E-14
  0.541999996       1.55408913E-14
  0.542999983       1.09680213E-14
  0.544000030       5.98652817E-15
  0.545000017       8.41028860E-16
  0.546000004      -4.21695183E-15
  0.546999991      -8.94106380E-15
  0.547999978      -1.31020454E-14
  0.549000025      -1.64988923E-14
  0.550000012      -1.89687404E-14
  0.550999999      -2.03949745E-14
  0.551999986      -2.07131353E-14
  0.552999973      -1.99143511E-14
  0.554000020      -1.80460624E-14
  0.555000007      -1.52099995E-14
  0.555999994      -1.15574681E-14
  0.556999981      -7.28214384E-15
  0.558000028      -2.61070632E-15
  0.559000015       2.20827334E-15
  0.560000002       6.91665251E-15
  0.560999990       1.12596632E-14
  0.561999977       1.49988579E-14
  0.563000023       1.79244250E-14
  0.564000010       1.98662294E-14
  0.564999998       2.07030641E-14
  0.565999985       2.03695838E-14
  0.566999972       1.88605675E-14
  0.568000019       1.62322497E-14
  0.569000006       1.26006027E-14
  0.569999993       8.13660611E-15
  0.570999980       3.05868192E-15
  0.572000027      -2.37738262E-15
  0.573000014      -7.89057777E-15
  0.574000001      -1.31883165E-14
  0.574999988      -1.79809492E-14
  0.575999975      -2.19964411E-14
  0.577000022      -2.49945057E-14
  0.578000009      -2.67794836E-14
  0.578999996      -2.72113231E-14
  0.579999983      -2.62140688E-14
  0.580999970      -2.37814122E-14
  0.582000017      -1.99789543E-14
  0.583000004      -1.49430097E-14
  0.583999991      -8.87592866E-15
  0.584999979      -2.03809955E-15
  0.586000025       5.26307268E-15
  0.587000012       1.26867333E-14
  0.588000000       1.98741068E-14
  0.588999987       2.64652666E-14
  0.589999974       3.21163960E-14
  0.591000021       3.65167118E-14
  0.592000008       3.94042302E-14
  0.592999995       4.05796172E-14
  0.593999982       3.99174204E-14
  0.595000029       3.73740786E-14
  0.596000016       3.29922789E-14
  0.597000003       2.69013717E-14
  0.597999990       1.93137454E-14
  0.598999977       1.05172210E-14
  0.600000024       8.63772859E-16
  0.601000011      -9.24499701E-15
  0.601999998      -1.93750096E-14
  0.602999985      -2.90787495E-14
  0.603999972      -3.79153428E-14
  0.605000019      -4.54707615E-14
  0.606000006      -5.13772340E-14
  0.606999993      -5.53309433E-14
  0.607999980      -5.71071578E-14
  0.609000027      -5.65720837E-14
  0.610000014      -5.36907927E-14
  0.611000001      -4.85308137E-14
  0.611999989      -4.12611738E-14
  0.612999976      -3.21467909E-14
  0.614000022      -2.15384774E-14
  0.615000010      -9.85885957E-15
  0.615999997       2.41515860E-15
  0.616999984       1.47726663E-14
  0.617999971       2.66908789E-14
  0.619000018       3.76581362E-14
  0.620000005       4.71967809E-14
  0.620999992       5.48848144E-14
  0.621999979       6.03754039E-14
  0.623000026       6.34133046E-14
  0.624000013       6.38473852E-14
  0.625000000       6.16386960E-14
  0.625999987       5.68636189E-14
  0.626999974       4.97119063E-14
  0.628000021       4.04796470E-14
  0.629000008       2.95573943E-14
  0.629999995       1.74139369E-14
  0.630999982       4.57639450E-15
  0.632000029      -8.39251256E-15
  0.633000016      -2.09190490E-14
  0.634000003      -3.24438115E-14
  0.634999990      -4.24467048E-14
  0.635999978      -5.04704819E-14
  0.637000024      -5.61416927E-14
  0.638000011      -5.91881822E-14
  0.638999999      -5.94522465E-14
  0.639999986      -5.68988622E-14
  0.640999973      -5.16185436E-14
  0.642000020      -4.38247156E-14
  0.643000007      -3.38455629E-14
  0.643999994      -2.21107617E-14
  0.644999981      -9.13358338E-15
  0.646000028       4.51086930E-15
  0.647000015       1.82103596E-14
  0.648000002       3.13420961E-14
  0.648999989       4.33000363E-14
  0.649999976       5.35217080E-14
  0.651000023       6.15133825E-14
  0.652000010       6.68724787E-14
  0.652999997       6.93061941E-14
  0.653999984       6.86454881E-14
  0.654999971       6.48538569E-14
  0.656000018       5.80303695E-14
  0.657000005       4.84068555E-14
  0.657999992       3.63393330E-14
  0.658999979       2.22939682E-14
  0.660000026       6.82817357E-15
  0.661000013      -9.43239119E-15
  0.662000000      -2.58199410E-14
  0.662999988      -4.16526859E-14
  0.663999975      -5.62637739E-14
  0.665000021      -6.90298038E-14
  0.666000009      -7.93976701E-14
  0.666999996      -8.69085890E-14
  0.667999983      -9.12182724E-14
  0.669000030      -9.21123393E-14
  0.670000017      -8.95163121E-14
  0.671000004      -8.34996880E-14
  0.671999991      -7.42739881E-14
  0.672999978      -6.21847273E-14
  0.674000025      -4.76976992E-14
  0.675000012      -3.13800940E-14
  0.675999999      -1.38772626E-14
  0.676999986       4.11394246E-15
  0.677999973       2.18740973E-14
  0.679000020       3.86912114E-14
  0.680000007       5.38905604E-14
  0.680999994       6.68630258E-14
  0.681999981       7.70908267E-14
  0.683000028       8.41694810E-14
  0.684000015       8.78251058E-14
  0.685000002       8.79262957E-14
  0.685999990       8.44900525E-14
  0.686999977       7.76815542E-14
  0.688000023       6.78076844E-14
  0.689000010       5.53046243E-14
  0.689999998       4.07199909E-14
  0.690999985       2.46902599E-14
  0.691999972       7.91438194E-15
  0.693000019      -8.87528745E-15
  0.694000006      -2.49435753E-14
  0.694999993      -3.95833099E-14
  0.695999980      -5.21451033E-14
  0.697000027      -6.20648417E-14
  0.698000014      -6.88877666E-14
  0.699000001      -7.22881228E-14
  0.699999988      -7.20835474E-14
  0.700999975      -6.82435675E-14
  0.702000022      -6.08919246E-14
  0.703000009      -5.03024678E-14
  0.703999996      -3.68888947E-14
  0.704999983      -2.11886478E-14
  0.705999970      -3.84165483E-15
  0.707000017       1.44352507E-14
  0.708000004       3.28772112E-14
  0.708999991       5.07023555E-14
  0.709999979       6.71436783E-14
  0.711000025       8.14804902E-14
  0.712000012       9.30681855E-14
  0.713000000       1.01365097E-13
  0.713999987       1.05955297E-13
  0.714999974       1.06566482E-13
  0.716000021       1.03082148E-13
  0.717000008       9.55475052E-14
  0.717999995       8.41689863E-14
  0.718999982       6.93071699E-14
  0.720000029       5.14635501E-14
  0.721000016       3.12615060E-14
  0.722000003       9.42231827E-15
  0.722999990      -1.32628842E-14
  0.723999977      -3.59641177E-14
  0.725000024      -5.78452488E-14
  0.726000011      -7.80971086E-14
  0.726999998      -9.59696867E-14
  0.727999985      -1.10802135E-13
  0.728999972      -1.22049303E-13
  0.730000019      -1.29303821E-13
  0.731000006      -1.32312753E-13
  0.731999993      -1.30988129E-13
  0.732999980      -1.25410953E-13
  0.734000027      -1.15828489E-13
  0.735000014      -1.02644882E-13
  0.736000001      -8.64054311E-14
  0.736999989      -6.77751922E-14
  0.737999976      -4.75127377E-14
  0.739000022      -2.64400233E-14
  0.740000010      -5.40966020E-15
  0.740999997       1.47291508E-14
  0.741999984       3.31646433E-14
  0.742999971       4.91550973E-14
  0.744000018       6.20587024E-14
  0.745000005       7.13594494E-14
  0.745999992       7.66880320E-14
  0.746999979       7.78367713E-14
  0.748000026       7.47680726E-14
  0.749000013       6.76159365E-14
  0.750000000       5.66804497E-14
  0.750999987       4.24155001E-14
  0.751999974       2.54101312E-14
  0.753000021       6.36428031E-15
  0.754000008      -1.39401083E-14
  0.754999995      -3.46714472E-14
  0.755999982      -5.49830194E-14
  0.757000029      -7.40482301E-14
  0.758000016      -9.10951409E-14
  0.759000003      -1.05438865E-13
  0.759999990      -1.16510412E-13
  0.760999978      -1.23880845E-13
  0.762000024      -1.27279602E-13
  0.763000011      -1.26606340E-13
  0.763999999      -1.21935597E-13
  0.764999986      -1.13514138E-13
  0.765999973      -1.01751039E-13
  0.767000020      -8.72008154E-14
  0.768000007      -7.05403685E-14
  0.768999994      -5.25405897E-14
  0.769999981      -3.40338143E-14
  0.771000028      -1.58785067E-14
  0.772000015       1.07738440E-15
  0.773000002       1.60328378E-14
  0.773999989       2.82683778E-14
  0.774999976       3.71774212E-14
  0.776000023       4.22929886E-14
  0.777000010       4.33086116E-14
  0.777999997       4.00924716E-14
  0.778999984       3.26941436E-14
  0.779999971       2.13435887E-14
  0.781000018       6.44237759E-15
  0.782000005      -1.14525444E-14
  0.782999992      -3.16518865E-14
  0.783999979      -5.33629097E-14
  0.785000026      -7.57229837E-14
  0.786000013      -9.78363712E-14
  0.787000000      -1.18812702E-13
  0.787999988      -1.37805403E-13
  0.788999975      -1.54048540E-13
  0.790000021      -1.66890292E-13
  0.791000009      -1.75821651E-13
  0.791999996      -1.80499089E-13
  0.792999983      -1.80760070E-13
  0.794000030      -1.76630683E-13
  0.795000017      -1.68324976E-13
  0.796000004      -1.56236054E-13
  0.796999991      -1.40919042E-13
  0.797999978      -1.23066881E-13
  0.799000025      -1.03479610E-13
  0.800000012      -8.30287851E-14
  0.800999999      -6.26183065E-14
  0.801999986      -4.31434707E-14
  0.802999973      -2.54500519E-14
  0.804000020      -1.02952001E-14
  0.805000007       1.68806668E-15
  0.805999994       1.00211299E-14
  0.806999981       1.44034158E-14
  0.808000028       1.47282411E-14
  0.809000015       1.10900965E-14
  0.810000002       3.78287709E-15
  0.810999990      -6.71093616E-15
  0.811999977      -1.97398165E-14
  0.813000023      -3.45106939E-14
  0.814000010      -5.01233136E-14
  0.814999998      -6.56100201E-14
  0.815999985      -7.99792632E-14
  0.816999972      -9.22610038E-14
  0.818000019      -1.01551932E-13
  0.819000006      -1.07058602E-13
  0.819999993      -1.08136434E-13
  0.820999980      -1.04322902E-13
  0.822000027      -9.53632586E-14
  0.823000014      -8.12275526E-14
  0.824000001      -6.21181099E-14
  0.824999988      -3.84669035E-14
  0.825999975      -1.09228126E-14
  0.827000022       1.96708731E-14
  0.828000009       5.23078590E-14
  0.828999996       8.58579836E-14
  0.829999983       1.19112511E-13
  0.830999970       1.50833678E-13
  0.832000017       1.79806596E-13
  0.833000004       2.04891076E-13
  0.833999991       2.25071399E-13
  0.834999979       2.39501642E-13
  0.836000025       2.47544850E-13
  0.837000012       2.48804097E-13
  0.838000000       2.43143911E-13
  0.838999987       2.30701444E-13
  0.839999974       2.11886227E-13
  0.841000021       1.87368906E-13
  0.842000008       1.58058882E-13
  0.842999995       1.25071855E-13
  0.843999982       8.96884834E-14
  0.845000029       5.33057519E-14
  0.846000016       1.73830287E-14
  0.847000003      -1.66150341E-14
  0.847999990      -4.72764121E-14
  0.848999977      -7.32980571E-14
  0.850000024      -9.35383227E-14
  0.851000011      -1.07063298E-13
  0.851999998      -1.13185096E-13
  0.852999985      -1.11490468E-13
  0.853999972      -1.01858470E-13
  0.855000019      -8.44664575E-14
  0.856000006      -5.97841140E-14