   0.00000000       0.00000000    
   1.00000005E-03   0.00000000    
   2.00000009E-03   0.00000000    
   3.00000003E-03   0.00000000    
   4.00000019E-03   0.00000000    
   4.99999989E-03   0.00000000    
   6.00000005E-03   0.00000000    
   7.00000022E-03   0.00000000    
   8.00000038E-03   0.00000000    
   8.99999961E-03   0.00000000    
   9.99999978E-03   0.00000000    
   1.09999999E-02   0.00000000    
   1.20000001E-02   0.00000000    
   1.30000003E-02   0.00000000    
   1.40000004E-02   0.00000000    
   1.49999997E-02   0.00000000    
   1.60000008E-02   0.00000000    
   1.70000009E-02   0.00000000    
   1.79999992E-02   0.00000000    
   1.89999994E-02   0.00000000    
   1.99999996E-02   3.41299301E-38
   2.09999997E-02   2.39461796E-37
   2.19999999E-02   1.01678862E-36
   2.30000000E-02   3.42787146E-36
   2.40000002E-02   9.99133751E-36
   2.50000004E-02   2.63951574E-35
   2.60000005E-02   6.47193038E-35
   2.70000007E-02   1.49160797E-34
   2.80000009E-02   3.25525885E-34
   2.89999992E-02   6.76402500E-34
   2.99999993E-02   1.34383855E-33
   3.09999995E-02   2.56115019E-33
   3.20000015E-02   4.69398331E-33
   3.29999998E-02   8.28768847E-33
   3.40000018E-02   1.41122093E-32
   3.50000001E-02   2.31858253E-32
   3.59999985E-02   3.67442107E-32
   3.70000005E-02   5.61000036E-32
   3.79999988E-02   8.23100305E-32
   3.90000008E-02   1.15532780E-31
   3.99999991E-02   1.53920324E-31
   4.10000011E-02   1.91850999E-31
   4.19999994E-02   2.17281362E-31
   4.30000015E-02   2.07989737E-31
   4.39999998E-02   1.26519362E-31
   4.50000018E-02  -8.62728923E-32
   4.60000001E-02  -5.18965145E-31
   4.69999984E-02  -1.29820891E-30
   4.80000004E-02  -2.59738943E-30
   4.89999987E-02  -4.64380981E-30
   5.00000007E-02  -7.72209736E-30
   5.09999990E-02  -1.21705637E-29
   5.20000011E-02  -1.83661946E-29
   5.29999994E-02  -2.66928835E-29
   5.40000014E-02  -3.74866044E-29
   5.49999997E-02  -5.09507595E-29
   5.60000017E-02  -6.70350311E-29
   5.70000000E-02  -8.52724622E-29
   5.79999983E-02  -1.04571917E-28
   5.90000004E-02  -1.22967931E-28
   5.99999987E-02  -1.37336584E-28
   6.10000007E-02  -1.43095439E-28
   6.19999990E-02  -1.33917613E-28
   6.30000010E-02  -1.01504332E-28
   6.40000030E-02  -3.54767249E-29
   6.49999976E-02   7.65358963E-29
   6.59999996E-02   2.48517739E-28
   6.70000017E-02   4.95292656E-28
   6.80000037E-02   8.31243497E-28
   6.89999983E-02   1.26841708E-27
   7.00000003E-02   1.81392730E-27
   7.10000023E-02   2.46660396E-27
   7.19999969E-02   3.21289893E-27
   7.29999989E-02   4.02214098E-27
   7.40000010E-02   4.84135108E-27
   7.50000030E-02   5.58996352E-27
   7.59999976E-02   6.15496588E-27
   7.69999996E-02   6.38715253E-27
   7.80000016E-02   6.09935966E-27
   7.90000036E-02   5.06773182E-27
   7.99999982E-02   3.03719306E-27
   8.10000002E-02  -2.67635266E-28
   8.20000023E-02  -5.12484103E-27
   8.29999968E-02  -1.17898975E-26
   8.39999989E-02  -2.04618563E-26
   8.50000009E-02  -3.12408209E-26
   8.60000029E-02  -4.40771748E-26
   8.69999975E-02  -5.87140174E-26
   8.79999995E-02  -7.46253603E-26
   8.90000015E-02  -9.09540847E-26
   9.00000036E-02  -1.06454992E-25
   9.09999982E-02  -1.19449984E-25
   9.20000002E-02  -1.27803639E-25
   9.30000022E-02  -1.28928813E-25
   9.39999968E-02  -1.19832544E-25
   9.49999988E-02  -9.72128763E-26
   9.60000008E-02  -5.76162065E-26
   9.70000029E-02   2.33663451E-27
   9.79999974E-02   8.56505112E-26
   9.89999995E-02   1.94581713E-25
  0.100000001       3.30194347E-25
  0.101000004       4.91859705E-25
  0.101999998       6.76719792E-25
  0.103000000       8.79144655E-25
  0.104000002       1.09022480E-24
  0.104999997       1.29734733E-24
  0.105999999       1.48391649E-24
  0.107000001       1.62928196E-24
  0.108000003       1.70894646E-24
  0.108999997       1.69511970E-24
  0.109999999       1.55768297E-24
  0.111000001       1.26561501E-24
  0.112000003       7.88909864E-25
  0.112999998       1.00993055E-25
  0.114000000      -8.18396351E-25
  0.115000002      -1.97992787E-24
  0.115999997      -3.38112608E-24
  0.116999999      -5.00271723E-24
  0.118000001      -6.80509282E-24
  0.119000003      -8.72517474E-24
  0.119999997      -1.06739933E-23
  0.120999999      -1.25353429E-23
  0.122000001      -1.41658719E-23
  0.123000003      -1.53969840E-23
  0.123999998      -1.60388754E-23
  0.125000000      -1.58869991E-23
  0.126000002      -1.47311081E-23
  0.127000004      -1.23669582E-23
  0.128000006      -8.61053984E-24
  0.128999993      -3.31454779E-24
  0.129999995       3.61343575E-24
  0.130999997       1.21917845E-23
  0.131999999       2.23456826E-23
  0.133000001       3.38891742E-23
  0.134000003       4.65098064E-23
  0.135000005       5.97573748E-23
  0.136000007       7.30383972E-23
  0.136999995       8.56178067E-23
  0.137999997       9.66294403E-23
  0.138999999       1.05096442E-22
  0.140000001       1.09962477E-22
  0.141000003       1.10134158E-22
  0.142000005       1.04534331E-22
  0.143000007       9.21654595E-23
  0.143999994       7.21811893E-23
  0.144999996       4.39636853E-23
  0.145999998       7.20330507E-24
  0.147000000      -3.80235153E-23
  0.148000002      -9.11829427E-23
  0.149000004      -1.51224206E-22
  0.150000006      -2.16537371E-22
  0.150999993      -2.84933757E-22
  0.151999995      -3.53654068E-22
  0.152999997      -4.19408515E-22
  0.153999999      -4.78451838E-22
  0.155000001      -5.26694987E-22
  0.156000003      -5.59852944E-22
  0.157000005      -5.73626379E-22
  0.158000007      -5.63912510E-22
  0.158999994      -5.27037441E-22
  0.159999996      -4.60001379E-22
  0.160999998      -3.60724660E-22
  0.162000000      -2.28281478E-22
  0.163000003      -6.31074651E-23
  0.164000005       1.32833763E-22
  0.165000007       3.55939013E-22
  0.165999994       6.00921421E-22
  0.166999996       8.60844198E-22
  0.167999998       1.12723856E-21
  0.169000000       1.39030926E-21
  0.170000002       1.63922398E-21
  0.171000004       1.86248035E-21
  0.172000006       2.04833588E-21
  0.172999993       2.18528314E-21
  0.173999995       2.26254617E-21
  0.174999997       2.27057160E-21
  0.175999999       2.20148506E-21
  0.177000001       2.04948375E-21
  0.178000003       1.81113639E-21
  0.179000005       1.48556892E-21
  0.180000007       1.07451701E-21
  0.180999994       5.82237711E-22
  0.181999996       1.52826496E-23
  0.182999998      -6.17853531E-22
  0.184000000      -1.30718215E-21
  0.185000002      -2.04172793E-21
  0.186000004      -2.81004442E-21
  0.187000006      -3.60067762E-21
  0.187999994      -4.40251331E-21
  0.188999996      -5.20494353E-21
  0.189999998      -5.99779130E-21
  0.191000000      -6.77094345E-21
  0.192000002      -7.51366278E-21
  0.193000004      -8.21356825E-21
  0.194000006      -8.85531581E-21
  0.194999993      -9.41902889E-21
  0.195999995      -9.87858508E-21
  0.196999997      -1.01998906E-20
  0.197999999      -1.03393231E-20
  0.199000001      -1.02425534E-20
  0.200000003      -9.84397274E-21
  0.201000005      -9.06697469E-21
  0.202000007      -7.82533135E-21
  0.202999994      -6.02589040E-21
  0.203999996      -3.57275705E-21
  0.204999998      -3.73079509E-22
  0.206000000       3.65554539E-21
  0.207000002       8.57613104E-21
  0.208000004       1.44220475E-20
  0.209000006       2.11858112E-20
  0.209999993       2.88074308E-20
  0.210999995       3.71629566E-20
  0.211999997       4.60540464E-20
  0.213000000       5.51994425E-20
  0.214000002       6.42293209E-20
  0.215000004       7.26836366E-20
  0.216000006       8.00153262E-20
  0.216999993       8.55994157E-20
  0.217999995       8.87486991E-20
  0.218999997       8.87365628E-20
  0.219999999       8.48271650E-20
  0.221000001       7.63127236E-20
  0.222000003       6.25573756E-20
  0.223000005       4.30463854E-20
  0.224000007       1.74391031E-20
  0.224999994      -1.43765348E-20
  0.225999996      -5.22306493E-20
  0.226999998      -9.56223502E-20
  0.228000000      -1.43678390E-19
  0.229000002      -1.95123350E-19
  0.230000004      -2.48264793E-19
  0.231000006      -3.00997351E-19
  0.231999993      -3.50828675E-19
  0.232999995      -3.94929835E-19
  0.233999997      -4.30211958E-19
  0.234999999      -4.53429858E-19
  0.236000001      -4.61311648E-19
  0.237000003      -4.50712466E-19
  0.238000005      -4.18788464E-19
  0.238999993      -3.63185539E-19
  0.239999995      -2.82235809E-19
  0.240999997      -1.75153298E-19
  0.241999999      -4.22186425E-20
  0.243000001       1.15057734E-19
  0.244000003       2.93805868E-19
  0.245000005       4.89711189E-19
  0.246000007       6.96985745E-19
  0.246999994       9.08404786E-19
  0.247999996       1.11541821E-18
  0.248999998       1.30834124E-18
  0.250000000       1.47662762E-18
  0.250999987       1.60922425E-18
  0.252000004       1.69500185E-18
  0.252999991       1.72325110E-18
  0.254000008       1.68423134E-18
  0.254999995       1.56975223E-18
  0.256000012       1.37376491E-18
  0.256999999       1.09293637E-18
  0.257999986       7.27177734E-19
  0.259000003       2.80095427E-19
  0.259999990      -2.40667036E-19
  0.261000007      -8.23226431E-19
  0.261999995      -1.45142415E-18
  0.263000011      -2.10498027E-18
  0.263999999      -2.75985668E-18
  0.264999986      -3.38883489E-18
  0.266000003      -3.96231342E-18
  0.266999990      -4.44930980E-18
  0.268000007      -4.81865215E-18
  0.268999994      -5.04032373E-18
  0.270000011      -5.08691964E-18
  0.270999998      -4.93516054E-18
  0.272000015      -4.56740059E-18
  0.273000002      -3.97306511E-18
  0.273999989      -3.14993645E-18
  0.275000006      -2.10521788E-18
  0.275999993      -8.56299335E-19
  0.277000010       5.68841871E-19
  0.277999997       2.13166470E-18
  0.279000014       3.78355845E-18
  0.280000001       5.46683501E-18
  0.280999988       7.11622819E-18
  0.282000005       8.66088955E-18
  0.282999992       1.00268377E-17
  0.284000009       1.11398059E-17
  0.284999996       1.19283952E-17
  0.286000013       1.23274255E-17
  0.287000000       1.22813549E-17
  0.287999988       1.17476207E-17
  0.289000005       1.06997491E-17
  0.289999992       9.13006143E-18
  0.291000009       7.05183135E-18
  0.291999996       4.50073107E-18
  0.293000013       1.53544657E-18
  0.294000000      -1.76265633E-18
  0.294999987      -5.29087964E-18
  0.296000004      -8.92759243E-18
  0.296999991      -1.25356715E-17
  0.298000008      -1.59669251E-17
  0.298999995      -1.90673932E-17
  0.300000012      -2.16833635E-17
  0.300999999      -2.36679088E-17
  0.301999986      -2.48876958E-17
  0.303000003      -2.52297862E-17
  0.303999990      -2.46081418E-17
  0.305000007      -2.29695053E-17
  0.305999994      -2.02983588E-17
  0.307000011      -1.66206575E-17
  0.307999998      -1.20060824E-17
  0.308999985      -6.56858748E-18
  0.310000002      -4.65075268E-19
  0.310999990       6.10787352E-18
  0.312000006       1.29192410E-17
  0.312999994       1.97106999E-17
  0.314000010       2.62054540E-17
  0.314999998       3.21185530E-17
  0.316000015       3.71683120E-17
  0.317000002       4.10884499E-17
  0.317999989       4.36404444E-17
  0.319000006       4.46255768E-17
  0.319999993       4.38961458E-17
  0.321000010       4.13652709E-17
  0.321999997       3.70147773E-17
  0.323000014       3.09006553E-17
  0.324000001       2.31557483E-17
  0.324999988       1.39892934E-17
  0.326000005       3.68316602E-18
  0.326999992      -7.41522007E-18
  0.328000009      -1.89032988E-17
  0.328999996      -3.03367596E-17
  0.330000013      -4.12455977E-17
  0.331000000      -5.11522568E-17
  0.331999987      -5.95912361E-17
  0.333000004      -6.61293710E-17
  0.333999991      -7.03859630E-17
  0.335000008      -7.20518518E-17
  0.335999995      -7.09065905E-17
  0.337000012      -6.68328054E-17
  0.338000000      -5.98269826E-17
  0.338999987      -5.00060591E-17
  0.340000004      -3.76092058E-17
  0.340999991      -2.29945507E-17
  0.342000008      -6.63065663E-18
  0.342999995       1.09171198E-17
  0.344000012       2.90050915E-17
  0.344999999       4.69339335E-17
  0.345999986       6.39749030E-17
  0.347000003       7.93985193E-17
  0.347999990       9.25047329E-17
  0.349000007       1.02653180E-16
  0.349999994       1.09292370E-16
  0.351000011       1.11986398E-16
  0.351999998       1.10438002E-16
  0.352999985       1.04506713E-16
  0.354000002       9.42212385E-17
  0.354999989       7.97851898E-17
  0.356000006       6.15757285E-17
  0.356999993       4.01348893E-17
  0.358000010       1.61536777E-17
  0.358999997      -9.55060502E-18
  0.360000014      -3.60631060E-17
  0.361000001      -6.24051524E-17
  0.361999989      -8.75716924E-17
  0.363000005      -1.10570960E-16
  0.363999993      -1.30464660E-16
  0.365000010      -1.46407038E-16
  0.365999997      -1.57680993E-16
  0.367000014      -1.63729708E-16
  0.368000001      -1.64182276E-16
  0.368999988      -1.58872054E-16
  0.370000005      -1.47846822E-16
  0.370999992      -1.31370218E-16
  0.372000009      -1.09914072E-16
  0.372999996      -8.41420626E-17
  0.374000013      -5.48851608E-17
  0.375000000      -2.31098563E-17
  0.375999987       1.01194116E-17
  0.377000004       4.36820251E-17
  0.377999991       7.64453058E-17
  0.379000008       1.07308976E-16
  0.379999995       1.35248001E-16
  0.381000012       1.59351766E-16
  0.381999999       1.78857849E-16
  0.382999986       1.93178874E-16
  0.384000003       2.01921206E-16
  0.384999990       2.04894636E-16
  0.386000007       2.02112834E-16
  0.386999995       1.93784555E-16
  0.388000011       1.80296336E-16
  0.388999999       1.62187632E-16
  0.389999986       1.40119843E-16
  0.391000003       1.14841045E-16
  0.391999990       8.71484605E-17
  0.393000007       5.78507489E-17
  0.393999994       2.77322094E-17
  0.395000011      -2.47892981E-18
  0.395999998      -3.21364929E-17
  0.397000015      -6.06950789E-17
  0.398000002      -8.77205717E-17
  0.398999989      -1.12891876E-16
  0.400000006      -1.35993998E-16
  0.400999993      -1.56903046E-16
  0.402000010      -1.75564413E-16
  0.402999997      -1.91965658E-16
  0.404000014      -2.06106423E-16
  0.405000001      -2.17967465E-16
  0.405999988      -2.27481683E-16
  0.407000005      -2.34509409E-16
  0.407999992      -2.38820648E-16
  0.409000009      -2.40086195E-16
  0.409999996      -2.37879171E-16
  0.411000013      -2.31688340E-16
  0.412000000      -2.20943078E-16
  0.412999988      -2.05049934E-16
  0.414000005      -1.83439120E-16
  0.414999992      -1.55619050E-16
  0.416000009      -1.21235958E-16
  0.416999996      -8.01352394E-17
  0.418000013      -3.24204541E-17
  0.419000000       2.14941972E-17
  0.419999987       8.08421414E-17
  0.421000004       1.44477523E-16
  0.421999991       2.10866827E-16
  0.423000008       2.78101642E-16
  0.423999995       3.43934922E-16
  0.425000012       4.05841146E-16
  0.425999999       4.61100173E-16
  0.426999986       5.06902685E-16
  0.428000003       5.40474307E-16
  0.428999990       5.59213375E-16
  0.430000007       5.60836767E-16
  0.430999994       5.43527013E-16
  0.432000011       5.06072593E-16
  0.432999998       4.47994191E-16
  0.433999985       3.69648513E-16
  0.435000002       2.72301955E-16
  0.435999990       1.58167600E-16
  0.437000006       3.04001713E-17
  0.437999994      -1.06955135E-16
  0.439000010      -2.49061568E-16
  0.439999998      -3.90437243E-16
  0.441000015      -5.25145922E-16
  0.442000002      -6.47027504E-16
  0.442999989      -7.49959530E-16
  0.444000006      -8.28141042E-16
  0.444999993      -8.76385921E-16
  0.446000010      -8.90413210E-16
  0.446999997      -8.67119857E-16
  0.448000014      -8.04821801E-16
  0.449000001      -7.03449057E-16
  0.449999988      -5.64681926E-16
  0.451000005      -3.92017356E-16
  0.451999992      -1.90756664E-16
  0.453000009       3.20910476E-17
  0.453999996       2.67991537E-16
  0.455000013       5.07152401E-16
  0.456000000       7.38868587E-16
  0.456999987       9.51935860E-16
  0.458000004       1.13511859E-15
  0.458999991       1.27765433E-15
  0.460000008       1.36977435E-15
  0.460999995       1.40321860E-15
  0.462000012       1.37171935E-15
  0.463000000       1.27143139E-15
  0.463999987       1.10128418E-15
  0.465000004       8.63235205E-16
  0.465999991       5.62406689E-16
  0.467000008       2.07091032E-16
  0.467999995      -1.91383521E-16
  0.469000012      -6.18930416E-16
  0.469999999      -1.05912248E-15
  0.470999986      -1.49374027E-15
  0.472000003      -1.90343465E-15
  0.472999990      -2.26848319E-15
  0.474000007      -2.56961061E-15
  0.474999994      -2.78884349E-15
  0.476000011      -2.91036222E-15
  0.476999998      -2.92131414E-15
  0.477999985      -2.81255024E-15
  0.479000002      -2.57924794E-15
  0.479999989      -2.22138816E-15
  0.481000006      -1.74405619E-15
  0.481999993      -1.15754559E-15
  0.483000010      -4.77248856E-16
  0.483999997       2.76672565E-16
  0.485000014       1.07983498E-15
  0.486000001       1.90438502E-15
  0.486999989       2.71993524E-15
  0.488000005       3.49465592E-15
  0.488999993       4.19647905E-15
  0.490000010       4.79437462E-15
  0.490999997       5.25964643E-15
  0.492000014       5.56719350E-15
  0.493000001       5.69668409E-15
  0.493999988       5.63358987E-15
  0.495000005       5.37002964E-15
  0.495999992       4.90537871E-15
  0.497000009       4.24661366E-15
  0.497999996       3.40835999E-15
  0.499000013       2.41263592E-15
  0.500000000       1.28828640E-15
  0.500999987       7.01227210E-17
  0.501999974      -1.20221070E-15
  0.503000021      -2.48560357E-15
  0.504000008      -3.73503286E-15
  0.504999995      -4.90524615E-15
  0.505999982      -5.95250540E-15
  0.507000029      -6.83632795E-15
  0.508000016      -7.52114774E-15
  0.509000003      -7.97782809E-15
  0.509999990      -8.18495814E-15
  0.510999978      -8.12987898E-15
  0.512000024      -7.80937865E-15
  0.513000011      -7.23003437E-15
  0.513999999      -6.40816254E-15
  0.514999986      -5.36937955E-15
  0.515999973      -4.14778143E-15
  0.517000020      -2.78476121E-15
  0.518000007      -1.32751249E-15
  0.518999994       1.72731485E-16
  0.519999981       1.66265283E-15
  0.521000028       3.08892100E-15
  0.522000015       4.40029932E-15
  0.523000002       5.54969846E-15
  0.523999989       6.49608964E-15
  0.524999976       7.20619802E-15
  0.526000023       7.65589798E-15
  0.527000010       7.83125074E-15
  0.527999997       7.72913245E-15
  0.528999984       7.35742559E-15
  0.529999971       6.73475303E-15
  0.531000018       5.88976144E-15
  0.532000005       4.85998367E-15
  0.532999992       3.69031503E-15
  0.533999979       2.43117027E-15
  0.535000026       1.13638978E-15
  0.536000013      -1.39013327E-16
  0.537000000      -1.34117460E-15
  0.537999988      -2.41966841E-15
  0.538999975      -3.32966873E-15
  0.540000021      -4.03388599E-15
  0.541000009      -4.50419595E-15
  0.541999996      -4.72288631E-15
  0.542999983      -4.68346328E-15
  0.544000030      -4.39098322E-15
  0.545000017      -3.86188579E-15
  0.546000004      -3.12333277E-15
  0.546999991      -2.21208075E-15
  0.547999978      -1.17292824E-15
  0.549000025      -5.68022677E-17
  0.550000012       1.08143312E-15
  0.550999999       2.18535665E-15
  0.551999986       3.19945224E-15
  0.552999973       4.07155143E-15
  0.554000020       4.75514640E-15
  0.555000007       5.21147312E-15
  0.555999994       5.41127337E-15
  0.556999981       5.33615553E-15
  0.558000028       4.97949536E-15
  0.559000015       4.34683121E-15
  0.560000002       3.45573751E-15
  0.560999990       2.33518069E-15
  0.561999977       1.02437941E-15
  0.563000023      -4.28778348E-16
  0.564000010      -1.96969486E-15
  0.564999998      -3.53931574E-15
  0.565999985      -5.07657593E-15
  0.566999972      -6.52093270E-15
  0.568000019      -7.81487674E-15
  0.569000006      -8.90631088E-15
  0.569999993      -9.75068669E-15
  0.570999980      -1.03128176E-14
  0.572000027      -1.05682802E-14
  0.573000014      -1.05043453E-14
  0.574000001      -1.01204064E-14
  0.574999988      -9.42787820E-15
  0.575999975      -8.44958309E-15
  0.577000022      -7.21865533E-15
  0.578000009      -5.77700907E-15
  0.578999996      -4.17345161E-15
  0.579999983      -2.46152560E-15
  0.580999970      -6.97181066E-16
  0.582000017       1.06361271E-15
  0.583000004       2.76720539E-15
  0.583999991       4.36444695E-15
  0.584999979       5.81261452E-15
  0.586000025       7.07698950E-15
  0.587000012       8.13202875E-15
  0.588000000       8.96206513E-15
  0.588999987       9.56151713E-15
  0.589999974       9.93460465E-15
  0.591000021       1.00945846E-14
  0.592000008       1.00625591E-14
  0.592999995       9.86591112E-15
  0.593999982       9.53645342E-15
  0.595000029       9.10839431E-15
  0.596000016       8.61621311E-15
  0.597000003       8.09256633E-15
  0.597999990       7.56633356E-15
  0.598999977       7.06089799E-15
  0.600000024       6.59276405E-15
  0.601000011       6.17058208E-15
  0.601999998       5.79463413E-15
  0.602999985       5.45681960E-15
  0.603999972       5.14114355E-15
  0.605000019       4.82469331E-15
  0.606000006       4.47905940E-15
  0.606999993       4.07213461E-15
  0.607999980       3.57020491E-15
  0.609000027       2.94023135E-15
  0.610000014       2.15220336E-15
  0.611000001       1.18144791E-15
  0.611999989       1.07675490E-17
  0.612999976      -1.36770706E-15
  0.614000022      -2.95105749E-15
  0.615000010      -4.72459901E-15
  0.615999997      -6.66145250E-15
  0.616999984      -8.72271141E-15
  0.617999971      -1.08582221E-14
  0.619000018      -1.30079595E-14
  0.620000005      -1.51039612E-14
  0.620999992      -1.70727571E-14
  0.621999979      -1.88381855E-14
  0.623000026      -2.03244963E-14
  0.624000013      -2.14596017E-14
  0.625000000      -2.21783312E-14
  0.625999987      -2.24255446E-14
  0.626999974      -2.21589664E-14
  0.628000021      -2.13515915E-14
  0.629000008      -1.99935486E-14
  0.629999995      -1.80933268E-14
  0.630999982      -1.56782817E-14
  0.632000029      -1.27943793E-14
  0.633000016      -9.50516995E-15
  0.634000003      -5.89001173E-15
  0.634999990      -2.04159843E-15
  0.635999978       1.93711988E-15
  0.637000024       5.93650834E-15
  0.638000011       9.84417202E-15
  0.638999999       1.35490763E-14
  0.639999986       1.69456920E-14
  0.640999973       1.99379951E-14
  0.642000020       2.24431459E-14
  0.643000007       2.43946929E-14
  0.643999994       2.57451599E-14
  0.644999981       2.64678873E-14
  0.646000028       2.65580540E-14
  0.647000015       2.60328241E-14
  0.648000002       2.49305886E-14
  0.648999989       2.33093421E-14
  0.649999976       2.12442351E-14
  0.651000023       1.88244196E-14
  0.652000010       1.61492862E-14
  0.652999997       1.33242789E-14
  0.653999984       1.04564362E-14
  0.654999971       7.64986456E-15
  0.656000018       5.00133187E-15
  0.657000005       2.59617165E-15
  0.657999992       5.04682982E-16
  0.658999979      -1.22081715E-15
  0.660000026      -2.54815209E-15
  0.661000013      -3.46655243E-15
  0.662000000      -3.98696799E-15
  0.662999988      -4.14139988E-15
  0.663999975      -3.98127169E-15
  0.665000021      -3.57489917E-15
  0.666000009      -3.00416244E-15
  0.666999996      -2.36051481E-15
  0.667999983      -1.74049622E-15
  0.669000030      -1.24094647E-15
  0.670000017      -9.54122793E-16
  0.671000004      -9.62937971E-16
  0.671999991      -1.33653466E-15
  0.672999978      -2.12639553E-15
  0.674000025      -3.36317248E-15
  0.675000012      -5.05438917E-15
  0.675999999      -7.18313585E-15
  0.676999986      -9.70783444E-15
  0.677999973      -1.25631029E-14
  0.679000020      -1.56617137E-14
  0.680000007      -1.88975693E-14
  0.680999994      -2.21496134E-14
  0.681999981      -2.52864949E-14
  0.683000028      -2.81718347E-14
  0.684000015      -3.06698636E-14
  0.685000002      -3.26511889E-14
  0.685999990      -3.39984863E-14
  0.686999977      -3.46118194E-14
  0.688000023      -3.44133969E-14
  0.689000010      -3.33515462E-14
  0.689999998      -3.14036855E-14
  0.690999985      -2.85782005E-14
  0.691999972      -2.49150913E-14
  0.693000019      -2.04853428E-14
  0.694000006      -1.53890233E-14
  0.694999993      -9.75216815E-15
  0.695999980      -3.72254802E-15
  0.697000027       2.53552134E-15
  0.698000014       8.84712530E-15
  0.699000001       1.50332255E-14
  0.699999988       2.09174058E-14
  0.700999975       2.63326077E-14
  0.702000022       3.11275833E-14
  0.703000009       3.51727992E-14
  0.703999996       3.83655273E-14
  0.704999983       4.06338950E-14
  0.705999970       4.19397488E-14
  0.707000017       4.22801442E-14
  0.708000004       4.16874143E-14
  0.708999991       4.02277902E-14
  0.709999979       3.79985960E-14
  0.711000025       3.51241355E-14
  0.712000012       3.17504100E-14
  0.713000000       2.80388844E-14
  0.713999987       2.41595362E-14
  0.714999974       2.02834863E-14
  0.716000021       1.65755081E-14
  0.717000008       1.31867250E-14
  0.717999995       1.02478281E-14
  0.718999982       7.86308393E-15
  0.720000029       6.10542407E-15
  0.721000016       5.01283161E-15
  0.722000003       4.58619975E-15
  0.722999990       4.78879140E-15
  0.723999977       5.54733990E-15
  0.725000024       6.75478452E-15
  0.726000011       8.27455390E-15
  0.726999998       9.94624542E-15
  0.727999985       1.15924904E-14
  0.728999972       1.30267425E-14
  0.730000019       1.40616676E-14
  0.731000006       1.45178161E-14
  0.731999993       1.42321898E-14
  0.732999980       1.30663675E-14
  0.734000027       1.09138298E-14
  0.735000014       7.70614482E-15
  0.736000001       3.41774999E-15
  0.736999989      -1.93091240E-15
  0.737999976      -8.27207294E-15
  0.739000022      -1.54912246E-14
  0.740000010      -2.34296361E-14
  0.740999997      -3.18887508E-14
  0.741999984      -4.06363176E-14
  0.742999971      -4.94140421E-14
  0.744000018      -5.79465133E-14
  0.745000005      -6.59510424E-14
  0.745999992      -7.31480442E-14
  0.746999979      -7.92715841E-14
  0.748000026      -8.40796345E-14
  0.749000013      -8.73636558E-14
  0.750000000      -8.89571416E-14
  0.750999987      -8.87426797E-14
  0.751999974      -8.66573184E-14
  0.753000021      -8.26959893E-14
  0.754000008      -7.69127397E-14
  0.754999995      -6.94198388E-14
  0.755999982      -6.03846197E-14
  0.757000029      -5.00242581E-14
  0.758000016      -3.85986206E-14
  0.759000003      -2.64014325E-14
  0.759999990      -1.37501433E-14
  0.760999978      -9.74807126E-16
  0.762000024       1.15935432E-14
  0.763000011       2.36346112E-14
  0.763999999       3.48501813E-14
  0.764999986       4.49746306E-14
  0.765999973       5.37842340E-14
  0.767000020       6.11048619E-14
  0.768000007       6.68177875E-14
  0.768999994       7.08633930E-14
  0.769999981       7.32425798E-14
  0.771000028       7.40159209E-14
  0.772000015       7.33004627E-14
  0.773000002       7.12644868E-14
  0.773999989       6.81203073E-14
  0.774999976       6.41154474E-14
  0.776000023       5.95226180E-14
  0.777000010       5.46287970E-14
  0.777999997       4.97239714E-14
  0.778999984       4.50899456E-14
  0.779999971       4.09896828E-14
  0.781000018       3.76576008E-14
  0.782000005       3.52912584E-14
  0.782999992       3.40447072E-14
  0.783999979       3.40238193E-14
  0.785000026       3.52837165E-14
  0.786000013       3.78284474E-14
  0.787000000       4.16128415E-14
  0.787999988       4.65464696E-14
  0.788999975       5.24995222E-14
  0.790000021       5.93102973E-14
  0.791000009       6.67939825E-14
  0.791999996       7.47523178E-14
  0.792999983       8.29837094E-14
  0.794000030       9.12933263E-14
  0.795000017       9.95027289E-14
  0.796000004       1.07458632E-13
  0.796999991       1.15040356E-13
  0.797999978       1.22165665E-13
  0.799000025       1.28794734E-13
  0.800000012       1.34932037E-13
  0.800999999       1.40626104E-13
  0.801999986       1.45967209E-13
  0.802999973       1.51082909E-13
  0.804000020       1.56131916E-13
  0.805000007       1.61296310E-13
  0.805999994       1.66772602E-13
  0.806999981       1.72762087E-13
  0.808000028       1.79460762E-13
  0.809000015       1.87049432E-13
  0.810000002       1.95684425E-13
  0.810999990       2.05489299E-13
  0.811999977       2.16547957E-13
  0.813000023       2.28899582E-13
  0.814000010       2.42535538E-13
  0.814999998       2.57398405E-13
  0.815999985       2.73383367E-13
  0.816999972       2.90341644E-13
  0.818000019       3.08086185E-13
  0.819000006       3.26399037E-13
  0.819999993       3.45040402E-13
  0.820999980       3.63758801E-13
  0.822000027       3.82301802E-13
  0.823000014       4.00427169E-13
  0.824000001       4.17913696E-13
  0.824999988       4.34571135E-13
  0.825999975       4.50249132E-13
  0.827000022       4.64844200E-13
  0.828000009       4.78305113E-13
  0.828999996       4.90635635E-13
  0.829999983       5.01895075E-13
  0.830999970       5.12196351E-13
  0.832000017       5.21701443E-13
  0.833000004       5.30614723E-13
  0.833999991       5.39174228E-13
  0.834999979       5.47641088E-13
  0.836000025       5.56288089E-13
  0.837000012       5.65387093E-13
  0.838000000       5.75196466E-13
  0.838999987       5.85948770E-13
  0.839999974       5.97839378E-13
  0.841000021       6.11016392E-13
  0.842000008       6.25572619E-13
  0.842999995       6.41539610E-13
  0.843999982       6.58884460E-13
  0.845000029       6.77509210E-13
  0.846000016       6.97253019E-13
  0.847000003       7.17897584E-13
  0.847999990       7.39174618E-13
  0.848999977       7.60776153E-13
  0.850000024       7.82366630E-13
  0.851000011       8.03596664E-13
  0.851999998       8.24117575E-13
  0.852999985       8.43596460E-13
  0.853999972       8.61731205E-13
  0.855000019       8.78264204E-13
  0.856000006       8.92995150E-13