   0.00000000       0.00000000    
   1.00000005E-03   0.00000000    
   2.00000009E-03   0.00000000    
   3.00000003E-03   0.00000000    
   4.00000019E-03   0.00000000    
   4.99999989E-03   0.00000000    
   6.00000005E-03   0.00000000    
   7.00000022E-03   0.00000000    
   8.00000038E-03   0.00000000    
   8.99999961E-03   0.00000000    
   9.99999978E-03   0.00000000    
   1.09999999E-02   0.00000000    
   1.20000001E-02   0.00000000    
   1.30000003E-02   0.00000000    
   1.40000004E-02   0.00000000    
   1.49999997E-02   0.00000000    
   1.60000008E-02   0.00000000    
   1.70000009E-02   0.00000000    
   1.79999992E-02   5.55340579E-38
   1.89999994E-02   2.16807822E-37
   1.99999996E-02   6.45243057E-37
   2.09999997E-02   1.70388494E-36
   2.19999999E-02   4.17420562E-36
   2.30000000E-02   9.67045424E-36
   2.40000002E-02   2.13447117E-35
   2.50000004E-02   4.50601193E-35
   2.60000005E-02   9.12293647E-35
   2.70000007E-02   1.77661622E-34
   2.80000009E-02   3.33699818E-34
   2.89999992E-02   6.05790417E-34
   2.99999993E-02   1.06473404E-33
   3.09999995E-02   1.81435827E-33
   3.20000015E-02   3.00098565E-33
   3.29999998E-02   4.82253794E-33
   3.40000018E-02   7.53506205E-33
   3.50000001E-02   1.14536584E-32
   3.59999985E-02   1.69439341E-32
   3.70000005E-02   2.43994644E-32
   3.79999988E-02   3.42009288E-32
   3.90000008E-02   4.66540454E-32
   3.99999991E-02   6.19065519E-32
   4.10000011E-02   7.98498854E-32
   4.19999994E-02   1.00019135E-31
   4.30000015E-02   1.21514812E-31
   4.39999998E-02   1.42981443E-31
   4.50000018E-02   1.62687901E-31
   4.60000001E-02   1.78760506E-31
   4.69999984E-02   1.89615044E-31
   4.80000004E-02   1.94612670E-31
   4.89999987E-02   1.94917758E-31
   5.00000007E-02   1.94452803E-31
   5.09999990E-02   2.00720903E-31
   5.20000011E-02   2.25089042E-31
   5.29999994E-02   2.81900802E-31
   5.40000014E-02   3.85515292E-31
   5.49999997E-02   5.44083485E-31
   5.60000017E-02   7.48597214E-31
   5.70000000E-02   9.55550330E-31
   5.79999983E-02   1.06151607E-30
   5.90000004E-02   8.68173860E-31
   5.99999987E-02   3.69339855E-32
   6.10000007E-02  -1.96653622E-30
   6.19999990E-02  -5.93577966E-30
   6.30000010E-02  -1.29903027E-29
   6.40000030E-02  -2.46375070E-29
   6.49999976E-02  -4.28174340E-29
   6.59999996E-02  -6.99131107E-29
   6.70000017E-02  -1.08704000E-28
   6.80000037E-02  -1.62235102E-28
   6.89999983E-02  -2.33570115E-28
   7.00000003E-02  -3.25394940E-28
   7.10000023E-02  -4.39439050E-28
   7.19999969E-02  -5.75687472E-28
   7.29999989E-02  -7.31369056E-28
   7.40000010E-02  -8.99724655E-28
   7.50000030E-02  -1.06858913E-27
   7.59999976E-02  -1.21885712E-27
   7.69999996E-02  -1.32295229E-27
   7.80000016E-02  -1.34347365E-27
   7.90000036E-02  -1.23225591E-27
   7.99999982E-02  -9.30143081E-28
   8.10000002E-02  -3.67833167E-28
   8.20000023E-02   5.31803280E-28
   8.29999968E-02   1.84950789E-27
   8.39999989E-02   3.66311298E-27
   8.50000009E-02   6.03836815E-27
   8.60000029E-02   9.01689893E-27
   8.69999975E-02   1.26012664E-26
   8.79999995E-02   1.67374067E-26
   8.90000015E-02   2.12950552E-26
   9.00000036E-02   2.60472503E-26
   9.09999982E-02   3.06505002E-26
   9.20000002E-02   3.46277797E-26
   9.30000022E-02   3.73570598E-26
   9.39999968E-02   3.80686554E-26
   9.49999988E-02   3.58550254E-26
   9.60000008E-02   2.96968999E-26
   9.70000029E-02   1.85095811E-26
   9.79999974E-02   1.21279256E-27
   9.89999995E-02  -2.31734177E-26
  0.100000001      -5.54056518E-26
  0.101000004      -9.58679793E-26
  0.101999998      -1.44400188E-25
  0.103000000      -2.00110247E-25
  0.104000002      -2.61181664E-25
  0.104999997      -3.24690120E-25
  0.105999999      -3.86448388E-25
  0.107000001      -4.40901903E-25
  0.108000003      -4.81101220E-25
  0.108999997      -4.98779149E-25
  0.109999999      -4.84561262E-25
  0.111000001      -4.28336385E-25
  0.112000003      -3.19809906E-25
  0.112999998      -1.49253630E-25
  0.114000000       9.15436596E-26
  0.115000002       4.08137182E-25
  0.115999997       8.02128707E-25
  0.116999999       1.26976294E-24
  0.118000001       1.80049436E-24
  0.119000003       2.37562543E-24
  0.119999997       2.96714390E-24
  0.120999999       3.53690638E-24
  0.122000001       4.03633738E-24
  0.123000003       4.40681604E-24
  0.123999998       4.58092593E-24
  0.125000000       4.48472947E-24
  0.126000002       4.04119084E-24
  0.127000004       3.17483441E-24
  0.128000006       1.81763926E-24
  0.128999993      -8.38993509E-26
  0.129999995      -2.56072809E-24
  0.130999997      -5.61252130E-24
  0.131999999      -9.19872716E-24
  0.133000001      -1.32299515E-23
  0.134000003      -1.75603751E-23
  0.135000005      -2.19820241E-23
  0.136000007      -2.62217901E-23
  0.136999995      -2.99421465E-23
  0.137999997      -3.27464650E-23
  0.138999999      -3.41898280E-23
  0.140000001      -3.37959529E-23
  0.141000003      -3.10807379E-23
  0.142000005      -2.55824531E-23
  0.143000007      -1.68983030E-23
  0.143999994      -4.72646800E-24
  0.144999996       1.10877784E-23
  0.145999998       3.05039449E-23
  0.147000000       5.32388593E-23
  0.148000002       7.87231687E-23
  0.149000004       1.06065618E-22
  0.150000006       1.34029311E-22
  0.150999993       1.61024383E-22
  0.151999995       1.85121446E-22
  0.152999997       2.04089979E-22
  0.153999999       2.15464899E-22
  0.155000001       2.16643873E-22
  0.156000003       2.05016114E-22
  0.157000005       1.78121990E-22
  0.158000007       1.33840388E-22
  0.158999994       7.05984441E-23
  0.159999996      -1.24043944E-23
  0.160999998      -1.14968614E-22
  0.162000000      -2.35676424E-22
  0.163000003      -3.71698485E-22
  0.164000005      -5.18643203E-22
  0.165000007      -6.70466490E-22
  0.165999994      -8.19461085E-22
  0.166999996      -9.56342967E-22
  0.167999998      -1.07045007E-21
  0.169000000      -1.15006560E-21
  0.170000002      -1.18287312E-21
  0.171000004      -1.15654309E-21
  0.172000006      -1.05944378E-21
  0.172999993      -8.81461311E-22
  0.173999995      -6.14900995E-22
  0.174999997      -2.55436291E-22
  0.175999999       1.96942495E-22
  0.177000001       7.37033425E-22
  0.178000003       1.35364482E-21
  0.179000005       2.02900215E-21
  0.180000007       2.73840908E-21
  0.180999994       3.45023294E-21
  0.181999996       4.12627780E-21
  0.182999998       4.72259747E-21
  0.184000000       5.19078937E-21
  0.185000002       5.47978398E-21
  0.186000004       5.53812526E-21
  0.187000006       5.31670743E-21
  0.187999994       4.77189752E-21
  0.188999996       3.86894546E-21
  0.189999998       2.58554001E-21
  0.191000000       9.15349867E-22
  0.192000002      -1.12865503E-21
  0.193000004      -3.51132071E-21
  0.194000006      -6.17309866E-21
  0.194999993      -9.02874990E-21
  0.195999995      -1.19671911E-20
  0.196999997      -1.48526984E-20
  0.197999999      -1.75276260E-20
  0.199000001      -1.98167772E-20
  0.200000003      -2.15334484E-20
  0.201000005      -2.24871360E-20
  0.202000007      -2.24927631E-20
  0.202999994      -2.13811890E-20
  0.203999996      -1.90106720E-20
  0.204999998      -1.52788369E-20
  0.206000000      -1.01345870E-20
  0.207000002      -3.58934751E-21
  0.208000004       4.27306883E-21
  0.209000006       1.32887002E-20
  0.209999993       2.32085279E-20
  0.210999995       3.36971280E-20
  0.211999997       4.43355044E-20
  0.213000000       5.46286362E-20
  0.214000002       6.40180538E-20
  0.215000004       7.18996374E-20
  0.216000006       7.76464489E-20
  0.216999993       8.06362609E-20
  0.217999995       8.02831388E-20
  0.218999997       7.60719558E-20
  0.219999999       6.75946858E-20
  0.221000001       5.45867795E-20
  0.222000003       3.69619485E-20
  0.223000005       1.48432100E-20
  0.224000007      -1.14117296E-20
  0.224999994      -4.11929774E-20
  0.225999996      -7.36307843E-20
  0.226999998      -1.07599473E-19
  0.228000000      -1.41734451E-19
  0.229000002      -1.74463338E-19
  0.230000004      -2.04051563E-19
  0.231000006      -2.28662267E-19
  0.231999993      -2.46429590E-19
  0.232999995      -2.55543466E-19
  0.233999997      -2.54343485E-19
  0.234999999      -2.41418426E-19
  0.236000001      -2.15707430E-19
  0.237000003      -1.76597956E-19
  0.238000005      -1.24015622E-19
  0.238999993      -5.85003196E-20
  0.239999995       1.87367233E-20
  0.240999997       1.05780270E-19
  0.241999999       2.00007451E-19
  0.243000001       2.98117056E-19
  0.244000003       3.96194569E-19
  0.245000005       4.89814431E-19
  0.246000007       5.74179202E-19
  0.246999994       6.44293823E-19
  0.247999996       6.95170755E-19
  0.248999998       7.22060484E-19
  0.250000000       7.20699410E-19
  0.250999987       6.87565605E-19
  0.252000004       6.20131153E-19
  0.252999991       5.17099345E-19
  0.254000008       3.78613336E-19
  0.254999995       2.06423219E-19
  0.256000012       3.99926801E-21
  0.256999999      -2.23420837E-19
  0.257999986      -4.68860188E-19
  0.259000003      -7.23713656E-19
  0.259999990      -9.77946273E-19
  0.261000007      -1.22037937E-18
  0.261999995      -1.43906110E-18
  0.263000011      -1.62171478E-18
  0.263999999      -1.75625085E-18
  0.264999986      -1.83132928E-18
  0.266000003      -1.83694749E-18
  0.266999990      -1.76503489E-18
  0.268000007      -1.61002362E-18
  0.268999994      -1.36936928E-18
  0.270000011      -1.04399034E-18
  0.270999998      -6.38599977E-19
  0.272000015      -1.61903118E-19
  0.273000002       3.73365289E-19
  0.273999989       9.50577865E-19
  0.275000006       1.54953955E-18
  0.275999993       2.14700601E-18
  0.277000010       2.71738964E-18
  0.277999997       3.23364216E-18
  0.279000014       3.66828918E-18
  0.280000001       3.99459001E-18
  0.280999988       4.18777597E-18
  0.282000005       4.22632797E-18
  0.282999992       4.09323088E-18
  0.284000009       3.77715400E-18
  0.284999996       3.27349469E-18
  0.286000013       2.58522272E-18
  0.287000000       1.72347558E-18
  0.287999988       7.07848539E-19
  0.289000005      -4.33658819E-19
  0.289999992      -1.66506866E-18
  0.291000009      -2.94324014E-18
  0.291999996      -4.21907318E-18
  0.293000013      -5.43908228E-18
  0.294000000      -6.54730205E-18
  0.294999987      -7.48747347E-18
  0.296000004      -8.20543646E-18
  0.296999991      -8.65164250E-18
  0.298000008      -8.78368782E-18
  0.298999995      -8.56875238E-18
  0.300000012      -7.98583324E-18
  0.300999999      -7.02766196E-18
  0.301999986      -5.70217865E-18
  0.303000003      -4.03347825E-18
  0.303999990      -2.06212942E-18
  0.305000007       1.55191374E-19
  0.305999994       2.54679563E-18
  0.307000011       5.02782090E-18
  0.307999998       7.50278624E-18
  0.308999985       9.86882140E-18
  0.310000002       1.20194678E-17
  0.310999990       1.38489440E-17
  0.312000006       1.52567194E-17
  0.312999994       1.61522202E-17
  0.314000010       1.64594731E-17
  0.314999998       1.61214788E-17
  0.316000015       1.51041013E-17
  0.317000002       1.33992638E-17
  0.317999989       1.10272614E-17
  0.319000006       8.03801841E-18
  0.319999993       4.51115975E-18
  0.321000010       5.54795258E-19
  0.321999997      -3.69701840E-18
  0.323000014      -8.08813232E-18
  0.324000001      -1.24454022E-17
  0.324999988      -1.65848919E-17
  0.326000005      -2.03190102E-17
  0.326999992      -2.34643115E-17
  0.328000009      -2.58496837E-17
  0.328999996      -2.73245897E-17
  0.330000013      -2.77670073E-17
  0.331000000      -2.70906763E-17
  0.331999987      -2.52513161E-17
  0.333000004      -2.22514397E-17
  0.333999991      -1.81434722E-17
  0.335000008      -1.30308947E-17
  0.335999995      -7.06724835E-18
  0.337000012      -4.52864997E-19
  0.338000000       6.57067487E-18
  0.338999987       1.37282782E-17
  0.340000004       2.07210778E-17
  0.340999991       2.72378946E-17
  0.342000008       3.29680311E-17
  0.342999995       3.76149167E-17
  0.344000012       4.09100701E-17
  0.344999999       4.26268007E-17
  0.345999986       4.25929657E-17
  0.347000003       4.07022459E-17
  0.347999990       3.69232250E-17
  0.349000007       3.13058381E-17
  0.349999994       2.39846097E-17
  0.351000011       1.51784069E-17
  0.351999998       5.18641169E-18
  0.352999985      -5.61974059E-18
  0.354000002      -1.68075705E-17
  0.354999989      -2.78988632E-17
  0.356000006      -3.83878773E-17
  0.356999993      -4.77619810E-17
  0.358000010      -5.55240751E-17
  0.358999997      -6.12158387E-17
  0.360000014      -6.44408836E-17
  0.361000001      -6.48867405E-17
  0.361999989      -6.23446888E-17
  0.363000005      -5.67262994E-17
  0.363999993      -4.80758232E-17
  0.365000010      -3.65775429E-17
  0.365999997      -2.25574039E-17
  0.367000014      -6.47850999E-18
  0.368000001       1.10698347E-17
  0.368999988       2.93894095E-17
  0.370000005       4.76964253E-17
  0.370999992       6.51503200E-17
  0.372000009       8.08870672E-17
  0.372999996       9.40559281E-17
  0.374000013       1.03858184E-16
  0.375000000       1.09586343E-16
  0.375999987       1.10662128E-16
  0.377000004       1.06671452E-16
  0.377999991       9.73946872E-17
  0.379000008       8.28305975E-17
  0.379999995       6.32123549E-17
  0.381000012       3.90145261E-17
  0.381999999       1.09499721E-17
  0.382999986      -2.00437939E-17
  0.384000003      -5.28289784E-17
  0.384999990      -8.61022888E-17
  0.386000007      -1.18439320E-16
  0.386999995      -1.48347273E-16
  0.388000011      -1.74324330E-16
  0.388999999      -1.94923550E-16
  0.389999986      -2.08818900E-16
  0.391000003      -2.14870673E-16
  0.391999990      -2.12187471E-16
  0.393000007      -2.00181943E-16
  0.393999994      -1.78617358E-16
  0.395000011      -1.47642541E-16
  0.395999998      -1.07812901E-16
  0.397000015      -6.00956972E-17
  0.398000002      -5.85835780E-18
  0.398999989       5.31607936E-17
  0.400000006       1.14899291E-16
  0.400999993       1.77033883E-16
  0.402000010       2.37058873E-16
  0.402999997       2.92377192E-16
  0.404000014       3.40401127E-16
  0.405000001       3.78659038E-16
  0.405999988       4.04904063E-16
  0.407000005       4.17220478E-16
  0.407999992       4.14122905E-16
  0.409000009       3.94644138E-16
  0.409999996       3.58407089E-16
  0.411000013       3.05676826E-16
  0.412000000       2.37389824E-16
  0.412999988       1.55157378E-16
  0.414000005       6.12419776E-17
  0.414999992      -4.14941655E-17
  0.416000009      -1.49667744E-16
  0.416999996      -2.59478485E-16
  0.418000013      -3.66835861E-16
  0.419000000      -4.67504483E-16
  0.419999987      -5.57263241E-16
  0.421000004      -6.32072449E-16
  0.421999991      -6.88242275E-16
  0.423000008      -7.22596343E-16
  0.423999995      -7.32623095E-16
  0.425000012      -7.16608138E-16
  0.425999999      -6.73741653E-16
  0.426999986      -6.04194901E-16
  0.428000003      -5.09161510E-16
  0.428999990      -3.90860230E-16
  0.430000007      -2.52496975E-16
  0.430999994      -9.81861667E-17
  0.432000011       6.71675620E-17
  0.432999998       2.38023987E-16
  0.433999985       4.08393759E-16
  0.435000002       5.72050689E-16
  0.435999990       7.22761726E-16
  0.437000006       8.54527177E-16
  0.437999994       9.61820523E-16
  0.439000010       1.03981966E-15
  0.439999998       1.08461807E-15
  0.441000015       1.09340889E-15
  0.442000002       1.06463116E-15
  0.442999989       9.98072580E-16
  0.444000006       8.94922073E-16
  0.444999993       7.57769174E-16
  0.446000010       5.90547983E-16
  0.446999997       3.98425478E-16
  0.448000014       1.87638153E-16
  0.449000001      -3.47187555E-17
  0.449999988      -2.60942290E-16
  0.451000005      -4.83004074E-16
  0.451999992      -6.92852993E-16
  0.453000009      -8.82726810E-16
  0.453999996      -1.04545994E-15
  0.455000013      -1.17477530E-15
  0.456000000      -1.26554653E-15
  0.456999987      -1.31402053E-15
  0.458000004      -1.31798941E-15
  0.458999991      -1.27690312E-15
  0.460000008      -1.19191745E-15
  0.460999995      -1.06587354E-15
  0.462000012      -9.03208596E-16
  0.463000000      -7.09799157E-16
  0.463999987      -4.92743312E-16
  0.465000004      -2.60088560E-16
  0.465999991      -2.05166435E-17
  0.467000008       2.17002880E-16
  0.467999995       4.43575511E-16
  0.469000012       6.50746561E-16
  0.469999999       8.30852024E-16
  0.470999986       9.77340072E-16
  0.472000003       1.08504921E-15
  0.472999990       1.15043030E-15
  0.474000007       1.17170099E-15
  0.474999994       1.14892640E-15
  0.476000011       1.08402006E-15
  0.476999998       9.80663936E-16
  0.477999985       8.44150653E-16
  0.479000002       6.81152556E-16
  0.479999989       4.99427566E-16
  0.481000006       3.07473992E-16
  0.481999993       1.14148410E-16
  0.483000010      -7.17361732E-17
  0.483999997      -2.41814275E-16
  0.485000014      -3.88555612E-16
  0.486000001      -5.05618636E-16
  0.486999989      -5.88152891E-16
  0.488000005      -6.33036108E-16
  0.488999993      -6.39033049E-16
  0.490000010      -6.06868402E-16
  0.490999997      -5.39208098E-16
  0.492000014      -4.40548215E-16
  0.493000001      -3.17015660E-16
  0.493999988      -1.76087271E-16
  0.495000005      -2.62395322E-17
  0.495999992       1.23456428E-16
  0.497000009       2.63776409E-16
  0.497999996       3.85801564E-16
  0.499000013       4.81372159E-16
  0.500000000       5.43515420E-16
  0.500999987       5.66826454E-16
  0.501999974       5.47783619E-16
  0.503000021       4.84980943E-16
  0.504000008       3.79265805E-16
  0.504999995       2.33771776E-16
  0.505999982       5.38433103E-17
  0.507000029      -1.53147395E-16
  0.508000016      -3.78085597E-16
  0.509000003      -6.10490579E-16
  0.509999990      -8.38968400E-16
  0.510999978      -1.05172164E-15
  0.512000024      -1.23709405E-15
  0.513000011      -1.38412627E-15
  0.513999999      -1.48309529E-15
  0.514999986      -1.52601488E-15
  0.515999973      -1.50707109E-15
  0.517000020      -1.42297131E-15
  0.518000007      -1.27318888E-15
  0.518999994      -1.06008969E-15
  0.519999981      -7.88930828E-16
  0.521000028      -4.67729688E-16
  0.522000015      -1.07004799E-16
  0.523000002       2.80602137E-16
  0.523999989       6.80808661E-16
  0.524999976       1.07825981E-15
  0.526000023       1.45715745E-15
  0.527000010       1.80192474E-15
  0.527999997       2.09787699E-15
  0.528999984       2.33186667E-15
  0.529999971       2.49287641E-15
  0.531000018       2.57253075E-15
  0.532000005       2.56550313E-15
  0.532999992       2.46979773E-15
  0.533999979       2.28689134E-15
  0.535000026       2.02172916E-15
  0.536000013       1.68256933E-15
  0.537000000       1.28068417E-15
  0.537999988       8.29927805E-16
  0.538999975       3.46188877E-16
  0.540000021      -1.53249065E-16
  0.541000009      -6.50411242E-16
  0.541999996      -1.12736888E-15
  0.542999983      -1.56697824E-15
  0.544000030      -1.95358599E-15
  0.545000017      -2.27367275E-15
  0.546000004      -2.51640233E-15
  0.546999991      -2.67405464E-15
  0.547999978      -2.74232084E-15
  0.549000025      -2.72044706E-15
  0.550000012      -2.61122258E-15
  0.550999999      -2.42081042E-15
  0.551999986      -2.15843138E-15
  0.552999973      -1.83591321E-15
  0.554000020      -1.46712989E-15
  0.555000007      -1.06735532E-15
  0.555999994      -6.52562600E-16
  0.556999981      -2.38703228E-16
  0.558000028       1.59001001E-16
  0.559000015       5.26718544E-16
  0.560000002       8.52590383E-16
  0.560999990       1.12720593E-15
  0.561999977       1.34395128E-15
  0.563000023       1.49921242E-15
  0.564000010       1.59242565E-15
  0.564999998       1.62597387E-15
  0.565999985       1.60493526E-15
  0.566999972       1.53669787E-15
  0.568000019       1.43046130E-15
  0.569000006       1.29665275E-15
  0.569999993       1.14628715E-15
  0.570999980       9.90307406E-16
  0.572000027       8.38937959E-16
  0.573000014       7.01088535E-16
  0.574000001       5.83839005E-16
  0.574999988       4.92035086E-16
  0.575999975       4.28017077E-16
  0.577000022       3.91497966E-16
  0.578000009       3.79599589E-16
  0.578999996       3.87046702E-16
  0.579999983       4.06510699E-16
  0.580999970       4.29086748E-16
  0.582000017       4.44880180E-16
  0.583000004       4.43671834E-16
  0.583999991       4.15627526E-16
  0.584999979       3.52012546E-16
  0.586000025       2.45871959E-16
  0.587000012       9.26373398E-17
  0.588000000      -1.09376385E-16
  0.588999987      -3.58615592E-16
  0.589999974      -6.50099428E-16
  0.591000021      -9.75415613E-16
  0.592000008      -1.32290908E-15
  0.592999995      -1.67806184E-15
  0.593999982      -2.02405405E-15
  0.595000029      -2.34248317E-15
  0.596000016      -2.61421642E-15
  0.597000003      -2.82033257E-15
  0.597999990      -2.94311614E-15
  0.598999977      -2.96705265E-15
  0.600000024      -2.87977755E-15
  0.601000011      -2.67292745E-15
  0.601999998      -2.34285120E-15
  0.602999985      -1.89113594E-15
  0.603999972      -1.32491665E-15
  0.605000019      -6.56943825E-16
  0.606000006       9.46061951E-17
  0.606999993       9.06578940E-16
  0.607999980       1.75154036E-15
  0.609000027       2.59870492E-15
  0.610000014       3.41505939E-15
  0.611000001       4.16664274E-15
  0.611999989       4.81992833E-15
  0.612999976       5.34325451E-15
  0.614000022       5.70824058E-15
  0.615000010       5.89112516E-15
  0.615999997       5.87397020E-15
  0.616999984       5.64566729E-15
  0.617999971       5.20270591E-15
  0.619000018       4.54965240E-15
  0.620000005       3.69932068E-15
  0.620999992       2.67261002E-15
  0.621999979       1.49801059E-15
  0.623000026       2.10788808E-16
  0.624000013      -1.14812584E-15
  0.625000000      -2.53351239E-15
  0.625999987      -3.89743957E-15
  0.626999974      -5.19099780E-15
  0.628000021      -6.36611413E-15
  0.629000008      -7.37738338E-15
  0.629999995      -8.18383667E-15
  0.630999982      -8.75058049E-15
  0.632000029      -9.05023957E-15
  0.633000016      -9.06414192E-15
  0.634000003      -8.78319380E-15
  0.634999990      -8.20841164E-15
  0.635999978      -7.35108301E-15
  0.637000024      -6.23254805E-15
  0.638000011      -4.88360022E-15
  0.638999999      -3.34353466E-15
  0.639999986      -1.65887189E-15
  0.640999973       1.18196857E-16
  0.642000020       1.93158177E-15
  0.643000007       3.72322226E-15
  0.643999994       5.43509575E-15
  0.644999981       7.01123560E-15
  0.646000028       8.39967930E-15
  0.647000015       9.55428008E-15
  0.648000002       1.04363124E-14
  0.648999989       1.10158100E-14
  0.649999976       1.12725982E-14
  0.651000023       1.11969717E-14
  0.652000010       1.07900114E-14
  0.652999997       1.00635120E-14
  0.653999984       9.03954662E-15
  0.654999971       7.74967554E-15
  0.656000018       6.23383003E-15
  0.657000005       4.53892515E-15
  0.657999992       2.71724400E-15
  0.658999979       8.24659101E-16
  0.660000026      -1.08124497E-15
  0.661000013      -2.94308099E-15
  0.662000000      -4.70553314E-15
  0.662999988      -6.31713022E-15
  0.663999975      -7.73185989E-15
  0.665000021      -8.91057231E-15
  0.666000009      -9.82212206E-15
  0.666999996      -1.04442271E-14
  0.667999983      -1.07640125E-14
  0.669000030      -1.07782266E-14
  0.670000017      -1.04931424E-14
  0.671000004      -9.92413786E-15
  0.671999991      -9.09499086E-15
  0.672999978      -8.03691542E-15
  0.674000025      -6.78737580E-15
  0.675000012      -5.38872620E-15
  0.675999999      -3.88672926E-15
  0.676999986      -2.32899840E-15
  0.677999973      -7.63425766E-16
  0.679000020       7.63359115E-16
  0.680000007       2.20744346E-15
  0.680999994       3.52895758E-15
  0.681999981       4.69322999E-15
  0.683000028       5.67174024E-15
  0.684000015       6.44284430E-15
  0.685000002       6.99225063E-15
  0.685999990       7.31324520E-15
  0.686999977       7.40665684E-15
  0.688000023       7.28057683E-15
  0.689000010       6.94984689E-15
  0.689999998       6.43533536E-15
  0.690999985       5.76303514E-15
  0.691999972       4.96301591E-15
  0.693000019       4.06826621E-15
  0.694000006       3.11347098E-15
  0.694999993       2.13376578E-15
  0.695999980       1.16350839E-15
  0.697000027       2.35110988E-16
  0.698000014      -6.22028174E-16
  0.699000001      -1.38245910E-15
  0.699999988      -2.02544975E-15
  0.700999975      -2.53556835E-15
  0.702000022      -2.90305677E-15
  0.703000009      -3.12399028E-15
  0.703999996      -3.20021668E-15
  0.704999983      -3.13908081E-15
  0.705999970      -2.95294934E-15
  0.707000017      -2.65855309E-15
  0.708000004      -2.27617616E-15
  0.708999991      -1.82872190E-15
  0.709999979      -1.34069614E-15
  0.711000025      -8.37145002E-16
  0.712000012      -3.42592296E-16
  0.713000000       1.19982588E-16
  0.713999987       5.30083912E-16
  0.714999974       8.70517942E-16
  0.716000021       1.12805730E-15
  0.717000008       1.29392308E-15
  0.717999995       1.36406503E-15
  0.718999982       1.33922844E-15
  0.720000029       1.22480371E-15
  0.721000016       1.03046704E-15
  0.722000003       7.69626630E-16
  0.722999990       4.58700475E-16
  0.723999977       1.16257112E-16
  0.725000024      -2.37940052E-16
  0.726000011      -5.83941073E-16
  0.726999998      -9.02622767E-16
  0.727999985      -1.17665804E-15
  0.728999972      -1.39139445E-15
  0.730000019      -1.53559810E-15
  0.731000006      -1.60202327E-15
  0.731999993      -1.58777957E-15
  0.732999980      -1.49447317E-15
  0.734000027      -1.32811251E-15
  0.735000014      -1.09877950E-15
  0.736000001      -8.20079406E-16
  0.736999989      -5.08391875E-16
  0.737999976      -1.81960981E-16
  0.739000022       1.40133793E-16
  0.740000010       4.39072551E-16
  0.740999997       6.97398860E-16
  0.741999984       9.00074045E-16
  0.742999971       1.03542282E-15
  0.744000018       1.09591526E-15
  0.745000005       1.07873701E-15
  0.745999992       9.86107075E-16
  0.746999979       8.25318781E-16
  0.748000026       6.08487399E-16
  0.749000013       3.52006379E-16
  0.750000000       7.57296159E-17
  0.750999987      -1.98088991E-16
  0.751999974      -4.46052738E-16
  0.753000021      -6.45016436E-16
  0.754000008      -7.73549080E-16
  0.754999995      -8.13389434E-16
  0.755999982      -7.50814398E-16
  0.757000029      -5.77842277E-16
  0.758000016      -2.93195002E-16
  0.759000003       9.70450611E-17
  0.759999990       5.79137919E-16
  0.760999978       1.13178541E-15
  0.762000024       1.72664808E-15
  0.763000011       2.32927750E-15
  0.763999999       2.90044262E-15
  0.764999986       3.39780660E-15
  0.765999973       3.77789358E-15
  0.767000020       3.99826063E-15
  0.768000007       4.01978332E-15
  0.768999994       3.80894750E-15
  0.769999981       3.34003387E-15
  0.771000028       2.59708539E-15
  0.772000015       1.57554841E-15
  0.773000002       2.83489619E-16
  0.773999989      -1.25769273E-15
  0.774999976      -3.01312870E-15
  0.776000023      -4.93494143E-15
  0.777000010      -6.96333250E-15
  0.777999997      -9.02827007E-15
  0.778999984      -1.10517352E-14
  0.779999971      -1.29504519E-14
  0.781000018      -1.46390028E-14
  0.782000005      -1.60332054E-14
  0.782999992      -1.70536260E-14
  0.783999979      -1.76290646E-14
  0.785000026      -1.76998614E-14
  0.786000013      -1.72208812E-14
  0.787000000      -1.61640195E-14
  0.787999988      -1.45201166E-14
  0.788999975      -1.23001635E-14
  0.790000021      -9.53573344E-15
  0.791000009      -6.27857412E-15
  0.791999996      -2.59938085E-15
  0.792999983       1.41425354E-15
  0.794000030       5.66063055E-15
  0.795000017       1.00273912E-14
  0.796000004       1.43954825E-14
  0.796999991       1.86435001E-14
  0.797999978       2.26522174E-14
  0.799000025       2.63091415E-14
  0.800000012       2.95128776E-14
  0.800999999       3.21771418E-14
  0.801999986       3.42342392E-14
  0.802999973       3.56378440E-14
  0.804000020       3.63649981E-14
  0.805000007       3.64171719E-14
  0.805999994       3.58203965E-14
  0.806999981       3.46244131E-14
  0.808000028       3.29009044E-14
  0.809000015       3.07408382E-14
  0.810000002       2.82510628E-14
  0.810999990       2.55502948E-14
  0.811999977       2.27646440E-14
  0.813000023       2.00228865E-14
  0.814000010       1.74516807E-14
  0.814999998       1.51709327E-14
  0.815999985       1.32894921E-14
  0.816999972       1.19013796E-14
  0.818000019       1.10826900E-14
  0.819000006       1.08893006E-14
  0.819999993       1.13554702E-14
  0.820999980       1.24933878E-14
  0.822000027       1.42936607E-14
  0.823000014       1.67267069E-14
  0.824000001       1.97449885E-14
  0.824999988       2.32859471E-14
  0.825999975       2.72755197E-14
  0.827000022       3.16320253E-14
  0.828000009       3.62702761E-14
  0.828999996       4.11056687E-14
  0.829999983       4.60581077E-14
  0.830999970       5.10555377E-14
  0.832000017       5.60369452E-14
  0.833000004       6.09546864E-14
  0.833999991       6.57760250E-14
  0.834999979       7.04838409E-14
  0.836000025       7.50764875E-14
  0.837000012       7.95667717E-14
  0.838000000       8.39801861E-14
  0.838999987       8.83524482E-14
  0.839999974       9.27264992E-14
  0.841000021       9.71491428E-14
  0.842000008       1.01667427E-13
  0.842999995       1.06325085E-13
  0.843999982       1.11159088E-13
  0.845000029       1.16196630E-13
  0.846000016       1.21452571E-13
  0.847000003       1.26927630E-13
  0.847999990       1.32607236E-13
  0.848999977       1.38461372E-13
  0.850000024       1.44445125E-13
  0.851000011       1.50500258E-13
  0.851999998       1.56557452E-13
  0.852999985       1.62539294E-13
  0.853999972       1.68363844E-13
  0.855000019       1.73948638E-13
  0.856000006       1.79214811E-13