   0.00000000       0.00000000    
   1.00000005E-03   0.00000000    
   2.00000009E-03   0.00000000    
   3.00000003E-03   0.00000000    
   4.00000019E-03   0.00000000    
   4.99999989E-03   0.00000000    
   6.00000005E-03   0.00000000    
   7.00000022E-03   0.00000000    
   8.00000038E-03   0.00000000    
   8.99999961E-03   0.00000000    
   9.99999978E-03   0.00000000    
   1.09999999E-02   0.00000000    
   1.20000001E-02   0.00000000    
   1.30000003E-02   0.00000000    
   1.40000004E-02   5.28503135E-38
   1.49999997E-02   2.99579899E-37
   1.60000008E-02   1.27460431E-36
   1.70000009E-02   4.67297245E-36
   1.79999992E-02   1.54488498E-35
   1.89999994E-02   4.68897924E-35
   1.99999996E-02   1.32097819E-34
   2.09999997E-02   3.48435214E-34
   2.19999999E-02   8.66617323E-34
   2.30000000E-02   2.04379456E-33
   2.40000002E-02   4.59122159E-33
   2.50000004E-02   9.86227050E-33
   2.60000005E-02   2.03241151E-32
   2.70000007E-02   4.02940479E-32
   2.80000009E-02   7.70332422E-32
   2.89999992E-02   1.42286068E-31
   2.99999993E-02   2.54315523E-31
   3.09999995E-02   4.40390871E-31
   3.20000015E-02   7.39500111E-31
   3.29999998E-02   1.20474883E-30
   3.40000018E-02   1.90442348E-30
   3.50000001E-02   2.92000132E-30
   3.59999985E-02   4.33844947E-30
   3.70000005E-02   6.23496836E-30
   3.79999988E-02   8.64094575E-30
   3.90000008E-02   1.14904057E-29
   3.99999991E-02   1.45368906E-29
   4.10000011E-02   1.72318173E-29
   4.19999994E-02   1.85554217E-29
   4.30000015E-02   1.67930830E-29
   4.39999998E-02   9.25389628E-30
   4.50000018E-02  -8.06417562E-30
   4.60000001E-02  -4.08465577E-29
   4.69999984E-02  -9.68387428E-29
   4.80000004E-02  -1.86171715E-28
   4.89999987E-02  -3.21551795E-28
   5.00000007E-02  -5.18196681E-28
   5.09999990E-02  -7.93362044E-28
   5.20000011E-02  -1.16526552E-27
   5.29999994E-02  -1.65118236E-27
   5.40000014E-02  -2.26446606E-27
   5.49999997E-02  -3.01024507E-27
   5.60000017E-02  -3.87958481E-27
   5.70000000E-02  -4.84197007E-27
   5.79999983E-02  -5.83610545E-27
   5.90000004E-02  -6.75922756E-27
   5.99999987E-02  -7.45540886E-27
   6.10000007E-02  -7.70368434E-27
   6.19999990E-02  -7.20729978E-27
   6.30000010E-02  -5.58586437E-27
   6.40000030E-02  -2.37275359E-27
   6.49999976E-02   2.97934082E-27
   6.59999996E-02   1.10813556E-26
   6.70000017E-02   2.25755875E-26
   6.80000037E-02   3.80844511E-26
   6.89999983E-02   5.81367191E-26
   7.00000003E-02   8.30685263E-26
   7.10000023E-02   1.12897779E-25
   7.19999969E-02   1.47172553E-25
   7.29999989E-02   1.84797200E-25
   7.40000010E-02   2.23843275E-25
   7.50000030E-02   2.61357087E-25
   7.59999976E-02   2.93180550E-25
   7.69999996E-02   3.13808030E-25
   7.80000016E-02   3.16306624E-25
   7.90000036E-02   2.92333510E-25
   7.99999982E-02   2.32286848E-25
   8.10000002E-02   1.25629735E-25
   8.20000023E-02  -3.85744447E-26
   8.29999968E-02  -2.70881030E-25
   8.39999989E-02  -5.80412053E-25
   8.50000009E-02  -9.73522199E-25
   8.60000029E-02  -1.45219166E-24
   8.69999975E-02  -2.01218183E-24
   8.79999995E-02  -2.64102151E-24
   8.90000015E-02  -3.31592948E-24
   9.00000036E-02  -4.00182235E-24
   9.09999982E-02  -4.64959666E-24
   9.20000002E-02  -5.19492201E-24
   9.30000022E-02  -5.55780828E-24
   9.39999968E-02  -5.64325375E-24
   9.49999988E-02  -5.34327479E-24
   9.60000008E-02  -4.54061829E-24
   9.70000029E-02  -3.11442404E-24
   9.79999974E-02  -9.48032920E-25
   9.89999995E-02   2.06096380E-24
  0.100000001       5.98847940E-24
  0.101000004       1.08697120E-23
  0.101999998       1.66833968E-23
  0.103000000       2.33352061E-23
  0.104000002       3.06412508E-23
  0.104999997       3.83129074E-23
  0.105999999       4.59444582E-23
  0.107000001       5.30052303E-23
  0.108000003       5.88381183E-23
  0.108999997       6.26664603E-23
  0.109999999       6.36110991E-23
  0.111000001       6.07194380E-23
  0.112000003       5.30077799E-23
  0.112999998       3.95177725E-23
  0.114000000       1.93870393E-23
  0.115000002      -8.06693895E-24
  0.115999997      -4.32516689E-23
  0.116999999      -8.61965781E-23
  0.118000001      -1.36446696E-22
  0.119000003      -1.92959240E-22
  0.119999997      -2.54010510E-22
  0.120999999      -3.17122008E-22
  0.122000001      -3.79015050E-22
  0.123000003      -4.35604448E-22
  0.123999998      -4.82040865E-22
  0.125000000      -5.12811843E-22
  0.126000002      -5.21909264E-22
  0.127000004      -5.03068842E-22
  0.128000006      -4.50084198E-22
  0.128999993      -3.57194451E-22
  0.129999995      -2.19538071E-22
  0.130999997      -3.36615152E-23
  0.131999999       2.01935795E-22
  0.133000001       4.86244673E-22
  0.134000003       8.15208254E-22
  0.135000005       1.18123936E-21
  0.136000007       1.57283476E-21
  0.136999995       1.97432947E-21
  0.137999997       2.36583813E-21
  0.138999999       2.72342633E-21
  0.140000001       3.01955235E-21
  0.141000003       3.22381224E-21
  0.142000005       3.30400817E-21
  0.143000007       3.22754909E-21
  0.143999994       2.96317179E-21
  0.144999996       2.48295063E-21
  0.145999998       1.76454225E-21
  0.147000000       7.93586700E-22
  0.148000002      -4.33839015E-22
  0.149000004      -1.90884043E-21
  0.150000006      -3.60754589E-21
  0.150999993      -5.48933089E-21
  0.151999995      -7.49559486E-21
  0.152999997      -9.54927591E-21
  0.153999999      -1.15552511E-20
  0.155000001      -1.34017937E-20
  0.156000003      -1.49631851E-20
  0.157000005      -1.61035699E-20
  0.158000007      -1.66820729E-20
  0.158999994      -1.65591300E-20
  0.159999996      -1.56039270E-20
  0.160999998      -1.37027428E-20
  0.162000000      -1.07679198E-20
  0.163000003      -6.74709900E-21
  0.164000005      -1.63228645E-21
  0.165000007       4.53175867E-21
  0.165999994       1.16403635E-20
  0.166999996       1.95235918E-20
  0.167999998       2.79432855E-20
  0.169000000       3.65930518E-20
  0.170000002       4.51016933E-20
  0.171000004       5.30404655E-20
  0.172000006       5.99344053E-20
  0.172999993       6.52778692E-20
  0.173999995       6.85540667E-20
  0.174999997       6.92583593E-20
  0.175999999       6.69246760E-20
  0.177000001       6.11542059E-20
  0.178000003       5.16453576E-20
  0.179000005       3.82235767E-20
  0.180000007       2.08696376E-20
  0.180999994      -2.55295281E-22
  0.181999996      -2.47895221E-20
  0.182999998      -5.21572984E-20
  0.184000000      -8.15635950E-20
  0.185000002      -1.11998588E-19
  0.186000004      -1.42253080E-19
  0.187000006      -1.70945611E-19
  0.187999994      -1.96561624E-19
  0.188999996      -2.17504531E-19
  0.189999998      -2.32157751E-19
  0.191000000      -2.38956426E-19
  0.192000002      -2.36466509E-19
  0.193000004      -2.23468659E-19
  0.194000006      -1.99043321E-19
  0.194999993      -1.62653461E-19
  0.195999995      -1.14220369E-19
  0.196999997      -5.41884016E-20
  0.197999999       1.64261025E-20
  0.199000001       9.60058066E-20
  0.200000003       1.82327228E-19
  0.201000005       2.72582663E-19
  0.202000007       3.63431521E-19
  0.202999994       4.51082216E-19
  0.203999996       5.31404504E-19
  0.204999998       6.00070886E-19
  0.206000000       6.52723724E-19
  0.207000002       6.85163731E-19
  0.208000004       6.93553359E-19
  0.209000006       6.74627725E-19
  0.209999993       6.25904047E-19
  0.210999995       5.45880423E-19
  0.211999997       4.34212746E-19
  0.213000000       2.91860598E-19
  0.214000002       1.21191123E-19
  0.215000004      -7.39679767E-20
  0.216000006      -2.88333939E-19
  0.216999993      -5.15239068E-19
  0.217999995      -7.46769093E-19
  0.218999997      -9.73970430E-19
  0.219999999      -1.18712443E-18
  0.221000001      -1.37608257E-18
  0.222000003      -1.53065419E-18
  0.223000005      -1.64103524E-18
  0.224000007      -1.69826146E-18
  0.224999994      -1.69466994E-18
  0.225999996      -1.62434894E-18
  0.226999998      -1.48355463E-18
  0.228000000      -1.27107427E-18
  0.229000002      -9.88513506E-19
  0.230000004      -6.40490498E-19
  0.231000006      -2.34718392E-19
  0.231999993       2.18036770E-19
  0.232999995       7.04131654E-19
  0.233999997       1.20735872E-18
  0.234999999       1.70939459E-18
  0.236000001       2.19037571E-18
  0.237000003       2.62958794E-18
  0.238000005       3.00624690E-18
  0.238999993       3.30034725E-18
  0.239999995       3.49354479E-18
  0.240999997       3.57004039E-18
  0.241999999       3.51742550E-18
  0.243000001       3.32745209E-18
  0.244000003       2.99668593E-18
  0.245000005       2.52701051E-18
  0.246000007       1.92594654E-18
  0.246999994       1.20676190E-18
  0.247999996       3.88350932E-19
  0.248999998      -5.05124562E-19
  0.250000000      -1.44483720E-18
  0.250999987      -2.39812729E-18
  0.252000004      -3.32954838E-18
  0.252999991      -4.20209571E-18
  0.254000008      -4.97857760E-18
  0.254999995      -5.62307868E-18
  0.256000012      -6.10246707E-18
  0.256999999      -6.38787581E-18
  0.257999986      -6.45610622E-18
  0.259000003      -6.29088020E-18
  0.259999990      -5.88389245E-18
  0.261000007      -5.23559874E-18
  0.261999995      -4.35570191E-18
  0.263000011      -3.26329204E-18
  0.263999999      -1.98662603E-18
  0.264999986      -5.62529552E-19
  0.266000003       9.64566317E-19
  0.266999990       2.54393773E-18
  0.268000007       4.12018953E-18
  0.268999994       5.63513649E-18
  0.270000011       7.02987881E-18
  0.270999998       8.24700146E-18
  0.272000015       9.23281050E-18
  0.273000002       9.93952384E-18
  0.273999989       1.03273260E-17
  0.275000006       1.03662076E-17
  0.275999993       1.00374976E-17
  0.277000010       9.33503762E-18
  0.277999997       8.26592487E-18
  0.279000014       6.85078842E-18
  0.280000001       5.12358070E-18
  0.280999988       3.13086600E-18
  0.282000005       9.30628647E-19
  0.282999992      -1.40936966E-18
  0.284000009      -3.81363432E-18
  0.284999996      -6.20131846E-18
  0.286000013      -8.48885666E-18
  0.287000000      -1.05927707E-17
  0.287999988      -1.24325436E-17
  0.289000005      -1.39334637E-17
  0.289999992      -1.50293423E-17
  0.291000009      -1.56650108E-17
  0.291999996      -1.57985078E-17
  0.293000013      -1.54028872E-17
  0.294000000      -1.44675759E-17
  0.294999987      -1.29992376E-17
  0.296000004      -1.10221205E-17
  0.296999991      -8.57785882E-18
  0.298000008      -5.72475076E-18
  0.298999995      -2.53651254E-18
  0.300000012       8.99447247E-19
  0.300999999       4.48418911E-18
  0.301999986       8.10978874E-18
  0.303000003       1.16621994E-17
  0.303999990       1.50243660E-17
  0.305000007       1.80795080E-17
  0.305999994       2.07145150E-17
  0.307000011       2.28233540E-17
  0.307999998       2.43104312E-17
  0.308999985       2.50938259E-17
  0.310000002       2.51083230E-17
  0.310999990       2.43081813E-17
  0.312000006       2.26695431E-17
  0.312999994       2.01924432E-17
  0.314000010       1.69023175E-17
  0.314999998       1.28509663E-17
  0.316000015       8.11689174E-18
  0.317000002       2.80494195E-18
  0.317999989      -2.95477993E-18
  0.319000006      -9.00881082E-18
  0.319999993      -1.51830540E-17
  0.321000010      -2.12863615E-17
  0.321999997      -2.71149623E-17
  0.323000014      -3.24577301E-17
  0.324000001      -3.71021971E-17
  0.324999988      -4.08412685E-17
  0.326000005      -4.34804445E-17
  0.326999992      -4.48454182E-17
  0.328000009      -4.47898152E-17
  0.328999996      -4.32028394E-17
  0.330000013      -4.00164867E-17
  0.331000000      -3.52120794E-17
  0.331999987      -2.88256992E-17
  0.333000004      -2.09522798E-17
  0.333999991      -1.17479400E-17
  0.335000008      -1.43030509E-18
  0.335999995       9.72346674E-18
  0.337000012       2.13811349E-17
  0.338000000       3.31624218E-17
  0.338999987       4.46486882E-17
  0.340000004       5.53951309E-17
  0.340999991       6.49452851E-17
  0.342000008       7.28475069E-17
  0.342999995       7.86729760E-17
  0.344000012       8.20345983E-17
  0.344999999       8.26061470E-17
  0.345999986       8.01408709E-17
  0.347000003       7.44886597E-17
  0.347999990       6.56109603E-17
  0.349000007       5.35925389E-17
  0.349999994       3.86492895E-17
  0.351000011       2.11313131E-17
  0.351999998       1.52071800E-18
  0.352999985      -1.95763145E-17
  0.354000002      -4.14433997E-17
  0.354999989      -6.32737317E-17
  0.356000006      -8.41954654E-17
  0.356999993      -1.03302140E-16
  0.358000010      -1.19687291E-16
  0.358999997      -1.32482107E-16
  0.360000014      -1.40894785E-16
  0.361000001      -1.44250068E-16
  0.361999989      -1.42027163E-16
  0.363000005      -1.33894336E-16
  0.363999993      -1.19738338E-16
  0.365000010      -9.96869370E-17
  0.365999997      -7.41230657E-17
  0.367000014      -4.36891355E-17
  0.368000001      -9.28061575E-18
  0.368999988       2.79717609E-17
  0.370000005       6.67313268E-17
  0.370999992       1.05495962E-16
  0.372000009       1.42648911E-16
  0.372999996       1.76518410E-16
  0.374000013       2.05444414E-16
  0.375000000       2.27849851E-16
  0.375999987       2.42313812E-16
  0.377000004       2.47643529E-16
  0.377999991       2.42942072E-16
  0.379000008       2.27668163E-16
  0.379999995       2.01685440E-16
  0.381000012       1.65297725E-16
  0.381999999       1.19268208E-16
  0.382999986       6.48202352E-17
  0.384000003       3.61852889E-18
  0.384999990      -6.22697462E-17
  0.386000007      -1.30433876E-16
  0.386999995      -1.98197107E-16
  0.388000011      -2.62710895E-16
  0.388999999      -3.21062889E-16
  0.389999986      -3.70394776E-16
  0.391000003      -4.08025909E-16
  0.391999990      -4.31577421E-16
  0.393000007      -4.39091768E-16
  0.393999994      -4.29142255E-16
  0.395000011      -4.00927137E-16
  0.395999998      -3.54343475E-16
  0.397000015      -2.90036178E-16
  0.398000002      -2.09418772E-16
  0.398999989      -1.14663115E-16
  0.400000006      -8.65687194E-18
  0.400999993       1.05071512E-16
  0.402000010       2.22459016E-16
  0.402999997       3.39042751E-16
  0.404000014       4.50118973E-16
  0.405000001       5.50921346E-16
  0.405999988       6.36811811E-16
  0.407000005       7.03476745E-16
  0.407999992       7.47120382E-16
  0.409000009       7.64647717E-16
  0.409999996       7.53828036E-16
  0.411000013       7.13431605E-16
  0.412000000       6.43332588E-16
  0.412999988       5.44571934E-16
  0.414000005       4.19375700E-16
  0.414999992       2.71126061E-16
  0.416000009       1.04283719E-16
  0.416999996      -7.57370936E-17
  0.418000013      -2.62738371E-16
  0.419000000      -4.49947554E-16
  0.419999987      -6.30259534E-16
  0.421000004      -7.96502932E-16
  0.421999991      -9.41720643E-16
  0.423000008      -1.05945378E-15
  0.423999995      -1.14401742E-15
  0.425000012      -1.19075701E-15
  0.425999999      -1.19627342E-15
  0.426999986      -1.15860661E-15
  0.428000003      -1.07736905E-15
  0.428999990      -9.53821038E-16
  0.430000007      -7.90883927E-16
  0.430999994      -5.93086276E-16
  0.432000011      -3.66445299E-16
  0.432999998      -1.18284525E-16
  0.433999985       1.43006372E-16
  0.435000002       4.08261887E-16
  0.435999990       6.67870921E-16
  0.437000006       9.12134947E-16
  0.437999994       1.13163994E-15
  0.439000010       1.31762878E-15
  0.439999998       1.46235696E-15
  0.441000015       1.55941910E-15
  0.442000002       1.60403063E-15
  0.442999989       1.59325320E-15
  0.444000006       1.52615305E-15
  0.444999993       1.40388342E-15
  0.446000010       1.22968781E-15
  0.446999997       1.00882069E-15
  0.448000014       7.48387173E-16
  0.449000001       4.57107471E-16
  0.449999988       1.45012636E-16
  0.451000005      -1.76916278E-16
  0.451999992      -4.97152912E-16
  0.453000009      -8.04058731E-16
  0.453999996      -1.08632706E-15
  0.455000013      -1.33342108E-15
  0.456000000      -1.53598784E-15
  0.456999987      -1.68623169E-15
  0.458000004      -1.77823090E-15
  0.458999991      -1.80818495E-15
  0.460000008      -1.77458114E-15
  0.460999995      -1.67827371E-15
  0.462000012      -1.52247004E-15
  0.463000000      -1.31262525E-15
  0.463999987      -1.05624754E-15
  0.465000004      -7.62621773E-16
  0.465999991      -4.42461557E-16
  0.467000008      -1.07503781E-16
  0.467999995       2.29939190E-16
  0.469000012       5.57451494E-16
  0.469999999       8.62990995E-16
  0.470999986       1.13535343E-15
  0.472000003       1.36460375E-15
  0.472999990       1.54245864E-15
  0.474000007       1.66260370E-15
  0.474999994       1.72093357E-15
  0.476000011       1.71570483E-15
  0.476999998       1.64759566E-15
  0.477999985       1.51967113E-15
  0.479000002       1.33725422E-15
  0.479999989       1.10770903E-15
  0.481000006       8.40145511E-16
  0.481999993       5.45056808E-16
  0.483000010       2.33905078E-16
  0.483999997      -8.13278552E-17
  0.485000014      -3.88606778E-16
  0.486000001      -6.76307739E-16
  0.486999989      -9.33662289E-16
  0.488000005      -1.15116457E-15
  0.488999993      -1.32092480E-15
  0.490000010      -1.43695624E-15
  0.490999997      -1.49538574E-15
  0.492000014      -1.49457852E-15
  0.493000001      -1.43517652E-15
  0.493999988      -1.32004738E-15
  0.495000005      -1.15414941E-15
  0.495999992      -9.44318281E-16
  0.497000009      -6.98984611E-16
  0.497999996      -4.27836739E-16
  0.499000013      -1.41440275E-16
  0.500000000       1.49168087E-16
  0.500999987       4.32897337E-16
  0.501999974       6.99013199E-16
  0.503000021       9.37527618E-16
  0.504000008       1.13955292E-15
  0.504999995       1.29760831E-15
  0.505999982       1.40586844E-15
  0.507000029       1.46034600E-15
  0.508000016       1.45900472E-15
  0.509000003       1.40180025E-15
  0.509999990       1.29064951E-15
  0.510999978       1.12933304E-15
  0.512000024       9.23335369E-16
  0.513000011       6.79632079E-16
  0.513999999       4.06432454E-16
  0.514999986       1.12889256E-16
  0.515999973      -1.91214035E-16
  0.517000020      -4.95786278E-16
  0.518000007      -7.90751578E-16
  0.518999994      -1.06636101E-15
  0.519999981      -1.31348457E-15
  0.521000028      -1.52387495E-15
  0.522000015      -1.69039623E-15
  0.523000002      -1.80721404E-15
  0.523999989      -1.86994360E-15
  0.524999976      -1.87575213E-15
  0.526000023      -1.82341905E-15
  0.527000010      -1.71335252E-15
  0.527999997      -1.54756488E-15
  0.528999984      -1.32961091E-15
  0.529999971      -1.06449161E-15
  0.531000018      -7.58527904E-16
  0.532000005      -4.19207458E-16
  0.532999992      -5.50094463E-17
  0.533999979       3.24789781E-16
  0.535000026       7.10326382E-16
  0.536000013       1.09137051E-15
  0.537000000       1.45755714E-15
  0.537999988       1.79862301E-15
  0.538999975       2.10464585E-15
  0.540000021       2.36628501E-15
  0.541000009       2.57501806E-15
  0.541999996       2.72336996E-15
  0.542999983       2.80513087E-15
  0.544000030       2.81555996E-15
  0.545000017       2.75156451E-15
  0.546000004       2.61185489E-15
  0.546999991       2.39706470E-15
  0.547999978       2.10983223E-15
  0.549000025       1.75483786E-15
  0.550000012       1.33878851E-15
  0.550999999       8.70349276E-16
  0.551999986       3.60014467E-16
  0.552999973      -1.80080965E-16
  0.554000020      -7.36411238E-16
  0.555000007      -1.29436809E-15
  0.555999994      -1.83862329E-15
  0.556999981      -2.35353822E-15
  0.558000028      -2.82361165E-15
  0.559000015      -3.23395252E-15
  0.560000002      -3.57076692E-15
  0.560999990      -3.82183849E-15
  0.561999977      -3.97699164E-15
  0.563000023      -4.02851326E-15
  0.564000010      -3.97152107E-15
  0.564999998      -3.80425790E-15
  0.565999985      -3.52829774E-15
  0.566999972      -3.14865122E-15
  0.568000019      -2.67375712E-15
  0.569000006      -2.11535785E-15
  0.569999993      -1.48825235E-15
  0.570999980      -8.09929357E-16
  0.572000027      -1.00088656E-16
  0.573000014       6.19938702E-16
  0.574000001       1.32785639E-15
  0.574999988       2.00113334E-15
  0.575999975       2.61777692E-15
  0.577000022       3.15711838E-15
  0.578000009       3.60058756E-15
  0.578999996       3.93244151E-15
  0.579999983       4.14042198E-15
  0.580999970       4.21631190E-15
  0.582000017       4.15636357E-15
  0.583000004       3.96158199E-15
  0.583999991       3.63784049E-15
  0.584999979       3.19582206E-15
  0.586000025       2.65077627E-15
  0.587000012       2.02209994E-15
  0.588000000       1.33274377E-15
  0.588999987       6.08464529E-16
  0.589999974      -1.23056523E-16
  0.591000021      -8.33199840E-16
  0.592000008      -1.49346573E-15
  0.592999995      -2.07656692E-15
  0.593999982      -2.55751519E-15
  0.595000029      -2.91466028E-15
  0.596000016      -3.13064013E-15
  0.597000003      -3.19320367E-15
  0.597999990      -3.09586858E-15
  0.598999977      -2.83838454E-15
  0.600000024      -2.42697555E-15
  0.601000011      -1.87434585E-15
  0.601999998      -1.19943878E-15
  0.602999985      -4.26948810E-16
  0.603999972       4.13403562E-16
  0.605000019       1.28781598E-15
  0.606000006       2.15954036E-15
  0.606999993       2.99017475E-15
  0.607999980       3.74107009E-15
  0.609000027       4.37480235E-15
  0.610000014       4.85665822E-15
  0.611000001       5.15607844E-15
  0.611999989       5.24800650E-15
  0.612999976       5.11408678E-15
  0.614000022       4.74366487E-15
  0.615000010       4.13454146E-15
  0.615999997       3.29344854E-15
  0.616999984       2.23621632E-15
  0.617999971       9.87613947E-16
  0.619000018      -4.19140437E-16
  0.620000005      -1.94319777E-15
  0.620999992      -3.53720429E-15
  0.621999979      -5.14870925E-15
  0.623000026      -6.72181079E-15
  0.624000013      -8.19899179E-15
  0.625000000      -9.52308724E-15
  0.625999987      -1.06393140E-14
  0.626999974      -1.14973000E-14
  0.628000021      -1.20530307E-14
  0.629000008      -1.22706521E-14
  0.629999995      -1.21240493E-14
  0.630999982      -1.15981469E-14
  0.632000029      -1.06898700E-14
  0.633000016      -9.40872509E-15
  0.634000003      -7.77695593E-15
  0.634999990      -5.82926931E-15
  0.635999978      -3.61211822E-15
  0.637000024      -1.18255170E-15
  0.638000011       1.39334167E-15
  0.638999999       4.04235124E-15
  0.639999986       6.68637094E-15
  0.640999973       9.24486741E-15
  0.642000020       1.16375042E-14
  0.643000007       1.37868453E-14
  0.643999994       1.56210358E-14
  0.644999981       1.70763638E-14
  0.646000028       1.80996270E-14
  0.647000015       1.86501849E-14
  0.648000002       1.87016489E-14
  0.648999989       1.82431076E-14
  0.649999976       1.72798618E-14
  0.651000023       1.58336021E-14
  0.652000010       1.39420285E-14
  0.652999997       1.16578983E-14
  0.653999984       9.04752652E-15
  0.654999971       6.18877720E-15
  0.656000018       3.16860266E-15
  0.657000005       8.02115187E-17
  0.657999992      -2.98004550E-15
  0.658999979      -5.91596482E-15
  0.660000026      -8.63484021E-15
  0.661000013      -1.10507527E-14
  0.662000000      -1.30876823E-14
  0.662999988      -1.46823183E-14
  0.663999975      -1.57864681E-14
  0.665000021      -1.63689558E-14
  0.666000009      -1.64169419E-14
  0.666999996      -1.59365912E-14
  0.667999983      -1.49530623E-14
  0.669000030      -1.35097918E-14
  0.670000017      -1.16671004E-14
  0.671000004      -9.50014620E-15
  0.671999991      -7.09629507E-15
  0.672999978      -4.55198936E-15
  0.674000025      -1.96923471E-15
  0.675000012       5.48186700E-16
  0.675999999       2.89862531E-15
  0.676999986       4.98645755E-15
  0.677999973       6.72581345E-15
  0.679000020       8.04399407E-15
  0.680000007       8.88444219E-15
  0.680999994       9.20914718E-15
  0.681999981       9.00038236E-15
  0.683000028       8.26169001E-15
  0.684000015       7.01807285E-15
  0.685000002       5.31536214E-15
  0.685999990       3.21877856E-15
  0.686999977       8.10724986E-16
  0.688000023      -1.81211794E-15
  0.689000010      -4.54229084E-15
  0.689999998      -7.26552844E-15
  0.690999985      -9.86505054E-15
  0.691999972      -1.22260287E-14
  0.693000019      -1.42400384E-14
  0.694000006      -1.58093397E-14
  0.694999993      -1.68508142E-14
  0.695999980      -1.72993960E-14
  0.697000027      -1.71108702E-14
  0.698000014      -1.62639067E-14
  0.699000001      -1.47612601E-14
  0.699999988      -1.26300524E-14
  0.700999975      -9.92114614E-15
  0.702000022      -6.70760012E-15
  0.703000009      -3.08226925E-15
  0.703999996       8.45375727E-16
  0.704999983       4.95308699E-15
  0.705999970       9.11019849E-15
  0.707000017       1.31823416E-14
  0.708000004       1.70363364E-14
  0.708999991       2.05450687E-14
  0.709999979       2.35921783E-14
  0.711000025       2.60763514E-14
  0.712000012       2.79150821E-14
  0.713000000       2.90477176E-14
  0.713999987       2.94377051E-14
  0.714999974       2.90739214E-14
  0.716000021       2.79710472E-14
  0.717000008       2.61689643E-14
  0.717999995       2.37312018E-14
  0.718999982       2.07424816E-14
  0.720000029       1.73054743E-14
  0.721000016       1.35368858E-14
  0.722000003       9.56300875E-15
  0.722999990       5.51495232E-15
  0.723999977       1.52370290E-15
  0.725000024      -2.28477587E-15
  0.726000011      -5.79421400E-15
  0.726999998      -8.90229510E-15
  0.727999985      -1.15243457E-14
  0.728999972      -1.35963001E-14
  0.730000019      -1.50768460E-14
  0.731000006      -1.59486614E-14
  0.731999993      -1.62186938E-14
  0.732999980      -1.59175024E-14
  0.734000027      -1.50976711E-14
  0.735000014      -1.38313789E-14
  0.736000001      -1.22072296E-14
  0.736999989      -1.03264768E-14
  0.737999976      -8.29879683E-15
  0.739000022      -6.23778102E-15
  0.740000010      -4.25634522E-15
  0.740999997      -2.46222504E-15
  0.741999984      -9.53752852E-16
  0.742999971       1.83926812E-16
  0.744000018       8.82048813E-16
  0.745000005       1.09070442E-15
  0.745999992       7.80511956E-16
  0.746999979      -5.65812450E-17
  0.748000026      -1.40738696E-15
  0.749000013      -3.23844264E-15
  0.750000000      -5.49781049E-15
  0.750999987      -8.11762495E-15
  0.751999974      -1.10172805E-14
  0.753000021      -1.41071254E-14
  0.754000008      -1.72925063E-14
  0.754999995      -2.04780024E-14
  0.755999982      -2.35716665E-14
  0.757000029      -2.64891208E-14
  0.758000016      -2.91573203E-14
  0.759000003      -3.15178690E-14
  0.759999990      -3.35297281E-14
  0.760999978      -3.51712406E-14
  0.762000024      -3.64413801E-14
  0.763000011      -3.73601872E-14
  0.763999999      -3.79683942E-14
  0.764999986      -3.83262486E-14
  0.765999973      -3.85115795E-14
  0.767000020      -3.86171977E-14
  0.768000007      -3.87477458E-14
  0.768999994      -3.90161028E-14
  0.769999981      -3.95394844E-14
  0.771000028      -4.04354081E-14
  0.772000015      -4.18176236E-14
  0.773000002      -4.37922403E-14
  0.773999989      -4.64540990E-14
  0.774999976      -4.98835795E-14
  0.776000023      -5.41439181E-14
  0.777000010      -5.92791536E-14
  0.777999997      -6.53127048E-14
  0.778999984      -7.22467062E-14
  0.779999971      -8.00620285E-14
  0.781000018      -8.87190034E-14
  0.782000005      -9.81588400E-14
  0.782999992      -1.08305590E-13
  0.783999979      -1.19068682E-13
  0.785000026      -1.30345875E-13
  0.786000013      -1.42026473E-13
  0.787000000      -1.53994805E-13
  0.787999988      -1.66133722E-13
  0.788999975      -1.78328096E-13
  0.790000021      -1.90468165E-13
  0.791000009      -2.02452570E-13
  0.791999996      -2.14191132E-13
  0.792999983      -2.25607104E-13
  0.794000030      -2.36639050E-13
  0.795000017      -2.47242087E-13
  0.796000004      -2.57388728E-13
  0.796999991      -2.67069055E-13
  0.797999978      -2.76290330E-13
  0.799000025      -2.85076297E-13
  0.800000012      -2.93465827E-13
  0.800999999      -3.01511203E-13
  0.801999986      -3.09276178E-13
  0.802999973      -3.16833690E-13
  0.804000020      -3.24263484E-13
  0.805000007      -3.31649421E-13
  0.805999994      -3.39077128E-13
  0.806999981      -3.46631361E-13
  0.808000028      -3.54393733E-13
  0.809000015      -3.62440601E-13
  0.810000002      -3.70841189E-13
  0.810999990      -3.79656051E-13
  0.811999977      -3.88935818E-13
  0.813000023      -3.98720309E-13
  0.814000010      -4.09038228E-13
  0.814999998      -4.19906975E-13
  0.815999985      -4.31332921E-13
  0.816999972      -4.43312189E-13
  0.818000019      -4.55831553E-13
  0.819000006      -4.68869680E-13
  0.819999993      -4.82398626E-13
  0.820999980      -4.96385702E-13
  0.822000027      -5.10794965E-13
  0.823000014      -5.25589500E-13
  0.824000001      -5.40732932E-13
  0.824999988      -5.56191540E-13
  0.825999975      -5.71935945E-13
  0.827000022      -5.87942564E-13
  0.828000009      -6.04195134E-13
  0.828999996      -6.20685686E-13
  0.829999983      -6.37415576E-13
  0.830999970      -6.54395592E-13
  0.832000017      -6.71646441E-13
  0.833000004      -6.89198427E-13
  0.833999991      -7.07090853E-13
  0.834999979      -7.25371152E-13
  0.836000025      -7.44093697E-13
  0.837000012      -7.63318445E-13
  0.838000000      -7.83108929E-13
  0.838999987      -8.03530636E-13
  0.839999974      -8.24648834E-13
  0.841000021      -8.46526462E-13
  0.842000008      -8.69222012E-13
  0.842999995      -8.92787688E-13
  0.843999982      -9.17267130E-13
  0.845000029      -9.42693840E-13
  0.846000016      -9.69089826E-13
  0.847000003      -9.96464413E-13
  0.847999990      -1.02481326E-12
  0.848999977      -1.05411795E-12
  0.850000024      -1.08434615E-12
  0.851000011      -1.11545191E-12
  0.851999998      -1.14737646E-12
  0.852999985      -1.18004955E-12
  0.853999972      -1.21339093E-12
  0.855000019      -1.24731247E-12
  0.856000006      -1.28172039E-12