   0.00000000       0.00000000    
   1.00000005E-03   0.00000000    
   2.00000009E-03   0.00000000    
   3.00000003E-03   0.00000000    
   4.00000019E-03   0.00000000    
   4.99999989E-03   0.00000000    
   6.00000005E-03   0.00000000    
   7.00000022E-03   0.00000000    
   8.00000038E-03   0.00000000    
   8.99999961E-03   0.00000000    
   9.99999978E-03   0.00000000    
   1.09999999E-02   0.00000000    
   1.20000001E-02   0.00000000    
   1.30000003E-02   0.00000000    
   1.40000004E-02   0.00000000    
   1.49999997E-02   0.00000000    
   1.60000008E-02   0.00000000    
   1.70000009E-02   1.37750904E-38
   1.79999992E-02   9.31506540E-38
   1.89999994E-02   3.00324583E-37
   1.99999996E-02   7.74485240E-37
   2.09999997E-02   1.72907406E-36
   2.19999999E-02   3.39779067E-36
   2.30000000E-02   5.74892322E-36
   2.40000002E-02   7.50811789E-36
   2.50000004E-02   3.89040668E-36
   2.60000005E-02  -1.84460620E-35
   2.70000007E-02  -9.15792751E-35
   2.80000009E-02  -2.85320902E-34
   2.89999992E-02  -7.41151668E-34
   2.99999993E-02  -1.72965196E-33
   3.09999995E-02  -3.74285299E-33
   3.20000015E-02  -7.63578722E-33
   3.29999998E-02  -1.48338321E-32
   3.40000018E-02  -2.76223628E-32
   3.50000001E-02  -4.95303008E-32
   3.59999985E-02  -8.58078785E-32
   3.70000005E-02  -1.43977428E-31
   3.79999988E-02  -2.34400674E-31
   3.90000008E-02  -3.70754069E-31
   3.99999991E-02  -5.70232404E-31
   4.10000011E-02  -8.53212074E-31
   4.19999994E-02  -1.24200062E-30
   4.30000015E-02  -1.75819179E-30
   4.39999998E-02  -2.41805131E-30
   4.50000018E-02  -3.22530334E-30
   4.60000001E-02  -4.16071097E-30
   4.69999984E-02  -5.16799189E-30
   4.80000004E-02  -6.13593531E-30
   4.89999987E-02  -6.87715578E-30
   5.00000007E-02  -7.10475180E-30
   5.09999990E-02  -6.40934740E-30
   5.20000011E-02  -4.24047042E-30
   5.29999994E-02   1.01934826E-31
   5.40000014E-02   7.45812308E-30
   5.49999997E-02   1.87715231E-29
   5.60000017E-02   3.50126932E-29
   5.70000000E-02   5.70518709E-29
   5.79999983E-02   8.54681487E-29
   5.90000004E-02   1.20285303E-28
   5.99999987E-02   1.60629250E-28
   6.10000007E-02   2.04309726E-28
   6.19999990E-02   2.47340875E-28
   6.30000010E-02   2.83430732E-28
   6.40000030E-02   3.03490231E-28
   6.49999976E-02   2.95234949E-28
   6.59999996E-02   2.42979655E-28
   6.70000017E-02   1.27751182E-28
   6.80000037E-02  -7.21314931E-29
   6.89999983E-02  -3.79844085E-28
   7.00000003E-02  -8.18040574E-28
   7.10000023E-02  -1.40587628E-27
   7.19999969E-02  -2.15494959E-27
   7.29999989E-02  -3.06410832E-27
   7.40000010E-02  -4.11317006E-27
   7.50000030E-02  -5.25574380E-27
   7.59999976E-02  -6.41152633E-27
   7.69999996E-02  -7.45865752E-27
   7.80000016E-02  -8.22697568E-27
   7.90000036E-02  -8.49326092E-27
   7.99999982E-02  -7.97982649E-27
   8.10000002E-02  -6.35801975E-27
   8.20000023E-02  -3.25836069E-27
   8.29999968E-02   1.71093376E-27
   8.39999989E-02   8.93540590E-27
   8.50000009E-02   1.87544793E-26
   8.60000029E-02   3.14095200E-26
   8.69999975E-02   4.69799518E-26
   8.79999995E-02   6.53087343E-26
   8.90000015E-02   8.59199441E-26
   9.00000036E-02   1.07932886E-25
   9.09999982E-02   1.29979329E-25
   9.20000002E-02   1.50132112E-25
   9.30000022E-02   1.65855873E-25
   9.39999968E-02   1.73991938E-25
   9.49999988E-02   1.70791036E-25
   9.60000008E-02   1.52007950E-25
   9.70000029E-02   1.13071735E-25
   9.79999974E-02   4.93433113E-26
   9.89999995E-02  -4.35308269E-26
  0.100000001      -1.69165662E-25
  0.101000004      -3.29888886E-25
  0.101999998      -5.26108890E-25
  0.103000000      -7.55622991E-25
  0.104000002      -1.01290066E-24
  0.104999997      -1.28839070E-24
  0.105999999      -1.56791282E-24
  0.107000001      -1.83220755E-24
  0.108000003      -2.05672624E-24
  0.108999997      -2.21175180E-24
  0.109999999      -2.26294000E-24
  0.111000001      -2.17236437E-24
  0.112000003      -1.90014031E-24
  0.112999998      -1.40667330E-24
  0.114000000      -6.55550906E-25
  0.115000002       3.82948089E-25
  0.115999997       1.72780319E-24
  0.116999999       3.38279886E-24
  0.118000001       5.33187023E-24
  0.119000003       7.53451779E-24
  0.119999997       9.92163298E-24
  0.120999999       1.23921197E-23
  0.122000001       1.48107720E-23
  0.123000003       1.70078648E-23
  0.123999998       1.87809259E-23
  0.125000000       1.98991473E-23
  0.126000002       2.01107718E-23
  0.127000004       1.91537510E-23
  0.128000006       1.67697345E-23
  0.128999993       1.27213279E-23
  0.129999995       6.81226041E-24
  0.130999997      -1.09014049E-24
  0.131999999      -1.10310586E-23
  0.133000001      -2.29440873E-23
  0.134000003      -3.66283990E-23
  0.135000005      -5.17288944E-23
  0.136000007      -6.77212853E-23
  0.136999995      -8.39041042E-23
  0.137999997      -9.93996737E-23
  0.138999999      -1.13165921E-22
  0.140000001      -1.24020622E-22
  0.141000003      -1.30679328E-22
  0.142000005      -1.31807323E-22
  0.143000007      -1.26085658E-22
  0.143999994      -1.12289882E-22
  0.144999996      -8.93795814E-23
  0.145999998      -5.65953426E-23
  0.147000000      -1.35589444E-23
  0.148000002       3.96285285E-23
  0.149000004       1.02296825E-22
  0.150000006       1.73131719E-22
  0.150999993       2.50122423E-22
  0.151999995       3.30538475E-22
  0.152999997       4.10942510E-22
  0.153999999       4.87244974E-22
  0.155000001       5.54804688E-22
  0.156000003       6.08577486E-22
  0.157000005       6.43312913E-22
  0.158000007       6.53795650E-22
  0.158999994       6.35125067E-22
  0.159999996       5.83024199E-22
  0.160999998       4.94163979E-22
  0.162000000       3.66487964E-22
  0.163000003       1.99518915E-22
  0.164000005      -5.37322824E-24
  0.165000007      -2.44762107E-22
  0.165999994      -5.13035450E-22
  0.166999996      -8.02364184E-22
  0.167999998      -1.10278483E-21
  0.169000000      -1.40240779E-21
  0.170000002      -1.68775551E-21
  0.171000004      -1.94422906E-21
  0.172000006      -2.15669371E-21
  0.172999993      -2.31016318E-21
  0.173999995      -2.39055884E-21
  0.174999997      -2.38550629E-21
  0.175999999      -2.28512724E-21
  0.177000001      -2.08278121E-21
  0.178000003      -1.77570596E-21
  0.179000005      -1.36550707E-21
  0.180000007      -8.58448484E-22
  0.180999994      -2.65507331E-22
  0.181999996       3.97838837E-22
  0.182999998       1.11210617E-21
  0.184000000       1.85457811E-21
  0.185000002       2.60033657E-21
  0.186000004       3.32350972E-21
  0.187000006       3.99866903E-21
  0.187999994       4.60229883E-21
  0.188999996       5.11423356E-21
  0.189999998       5.51895349E-21
  0.191000000       5.80661847E-21
  0.192000002       5.97373036E-21
  0.193000004       6.02331071E-21
  0.194000006       5.96451425E-21
  0.194999993       5.81162033E-21
  0.195999995       5.58238427E-21
  0.196999997       5.29578396E-21
  0.197999999       4.96923825E-21
  0.199000001       4.61544406E-21
  0.200000003       4.23902397E-21
  0.201000005       3.83324139E-21
  0.202000007       3.37707087E-21
  0.202999994       2.83295627E-21
  0.203999996       2.14559625E-21
  0.204999998       1.24209408E-21
  0.206000000       3.37723723E-23
  0.207000002      -1.58010117E-21
  0.208000004      -3.70652282E-21
  0.209000006      -6.45085565E-21
  0.209999993      -9.90692813E-21
  0.210999995      -1.41453879E-20
  0.211999997      -1.92007474E-20
  0.213000000      -2.50577516E-20
  0.214000002      -3.16378360E-20
  0.215000004      -3.87866411E-20
  0.216000006      -4.62636494E-20
  0.216999993      -5.37350840E-20
  0.217999995      -6.07712794E-20
  0.218999997      -6.68495899E-20
  0.219999999      -7.13638829E-20
  0.221000001      -7.36413890E-20
  0.222000003      -7.29674048E-20
  0.223000005      -6.86178953E-20
  0.224000007      -5.98997477E-20
  0.224999994      -4.61977302E-20
  0.225999996      -2.70267000E-20
  0.226999998      -2.08715400E-21
  0.228000000       2.86785457E-20
  0.229000002       6.50322741E-20
  0.230000004       1.06392119E-19
  0.231000006       1.51793911E-19
  0.231999993       1.99866339E-19
  0.232999995       2.48823347E-19
  0.233999997       2.96477403E-19
  0.234999999       3.40276642E-19
  0.236000001       3.77367860E-19
  0.237000003       4.04686819E-19
  0.238000005       4.19075263E-19
  0.238999993       4.17423539E-19
  0.239999995       3.96834936E-19
  0.240999997       3.54807466E-19
  0.241999999       2.89425895E-19
  0.243000001       1.99556121E-19
  0.244000003       8.50322024E-20
  0.245000005      -5.31747047E-20
  0.246000007      -2.12816938E-19
  0.246999994      -3.90271981E-19
  0.247999996      -5.80496432E-19
  0.248999998      -7.77042611E-19
  0.250000000      -9.72146393E-19
  0.250999987      -1.15689170E-18
  0.252000004      -1.32145649E-18
  0.252999991      -1.45543783E-18
  0.254000008      -1.54825267E-18
  0.254999995      -1.58960580E-18
  0.256000012      -1.57000979E-18
  0.256999999      -1.48134151E-18
  0.257999986      -1.31741044E-18
  0.259000003      -1.07451589E-18
  0.259999990      -7.51961926E-19
  0.261000007      -3.52501803E-19
  0.261999995       1.17319673E-19
  0.263000011       6.46955276E-19
  0.263999999       1.22180336E-18
  0.264999986       1.82333665E-18
  0.266000003       2.42943070E-18
  0.266999990       3.01489797E-18
  0.268000007       3.55223243E-18
  0.268999994       4.01255348E-18
  0.270000011       4.36672574E-18
  0.270999998       4.58663130E-18
  0.272000015       4.64654647E-18
  0.273000002       4.52457455E-18
  0.273999989       4.20407350E-18
  0.275000006       3.67501126E-18
  0.275999993       2.93518051E-18
  0.277000010       1.99119434E-18
  0.277999997       8.59200516E-19
  0.279000014      -4.34757238E-19
  0.280000001      -1.85478274E-18
  0.280999988      -3.35561925E-18
  0.282000005      -4.88361561E-18
  0.282999992      -6.37817381E-18
  0.284000009      -7.77366224E-18
  0.284999996      -9.00175579E-18
  0.286000013      -9.99414671E-18
  0.287000000      -1.06855283E-17
  0.287999988      -1.10167554E-17
  0.289000005      -1.09380549E-17
  0.289999992      -1.04121351E-17
  0.291000009      -9.41705671E-18
  0.291999996      -7.94869862E-18
  0.293000013      -6.02268053E-18
  0.294000000      -3.67558491E-18
  0.294999987      -9.65375403E-19
  0.296000004       2.02909844E-18
  0.296999991       5.20956944E-18
  0.298000008       8.46081855E-18
  0.298999995       1.16541220E-17
  0.300000012       1.46516120E-17
  0.300999999       1.73114360E-17
  0.301999986       1.94935732E-17
  0.303000003       2.10660717E-17
  0.303999990       2.19114950E-17
  0.305000007       2.19332978E-17
  0.305999994       2.10618216E-17
  0.307000011       1.92596383E-17
  0.307999998       1.65259222E-17
  0.308999985       1.28995773E-17
  0.310000002       8.46087811E-18
  0.310999990       3.33142546E-18
  0.312000006      -2.32772574E-18
  0.312999994      -8.31983223E-18
  0.314000010      -1.44181105E-17
  0.314999998      -2.03731673E-17
  0.316000015      -2.59220223E-17
  0.317000002      -3.07984521E-17
  0.317999989      -3.47443121E-17
  0.319000006      -3.75213626E-17
  0.319999993      -3.89231988E-17
  0.321000010      -3.87866478E-17
  0.321999997      -3.70022009E-17
  0.323000014      -3.35228542E-17
  0.324000001      -2.83708954E-17
  0.324999988      -2.16421600E-17
  0.326000005      -1.35073904E-17
  0.326999992      -4.21041218E-18
  0.328000009       5.93702060E-18
  0.328999996       1.65637260E-17
  0.330000013       2.72507986E-17
  0.331000000       3.75462574E-17
  0.331999987       4.69821647E-17
  0.333000004       5.50936599E-17
  0.333999991       6.14392106E-17
  0.335000008       6.56212372E-17
  0.335999995       6.73063100E-17
  0.337000012       6.62438859E-17
  0.338000000       6.22827694E-17
  0.338999987       5.53844073E-17
  0.340000004       4.56321630E-17
  0.340999991       3.32359681E-17
  0.342000008       1.85318467E-17
  0.342999995       1.97596987E-18
  0.344000012      -1.58668379E-17
  0.344999999      -3.43399631E-17
  0.345999986      -5.27168822E-17
  0.347000003      -7.02273495E-17
  0.347999990      -8.60871216E-17
  0.349000007      -9.95300241E-17
  0.349999994      -1.09841241E-16
  0.351000011      -1.16390361E-16
  0.351999998      -1.18662778E-16
  0.352999985      -1.16288055E-16
  0.354000002      -1.09063751E-16
  0.354999989      -9.69735662E-17
  0.356000006      -8.01986279E-17
  0.356999993      -5.91210733E-17
  0.358000010      -3.43194358E-17
  0.358999997      -6.55552133E-18
  0.360000014       2.32470508E-17
  0.361000001       5.40321556E-17
  0.361999989       8.46474832E-17
  0.363000005       1.13886637E-16
  0.363999993       1.40535524E-16
  0.365000010       1.63421283E-16
  0.365999997       1.81461708E-16
  0.367000014       1.93713272E-16
  0.368000001       1.99415471E-16
  0.368999988       1.98029500E-16
  0.370000005       1.89269578E-16
  0.370999992       1.73124958E-16
  0.372000009       1.49871641E-16
  0.372999996       1.20072664E-16
  0.374000013       8.45666974E-17
  0.375000000       4.44448511E-17
  0.375999987       1.01627369E-18
  0.377000004      -4.42363221E-17
  0.377999991      -8.97097888E-17
  0.379000008      -1.33740295E-16
  0.379999995      -1.74667458E-16
  0.381000012      -2.10900259E-16
  0.381999999      -2.40982012E-16
  0.382999986      -2.63651631E-16
  0.384000003      -2.77898513E-16
  0.384999990      -2.83008610E-16
  0.386000007      -2.78599301E-16
  0.386999995      -2.64641601E-16
  0.388000011      -2.41468314E-16
  0.388999999      -2.09767405E-16
  0.389999986      -1.70560619E-16
  0.391000003      -1.25168084E-16
  0.391999990      -7.51598804E-17
  0.393000007      -2.22965972E-17
  0.393999994       3.15389442E-17
  0.395000011       8.44158462E-17
  0.395999998       1.34432242E-16
  0.397000015       1.79791994E-16
  0.398000002       2.18877708E-16
  0.398999989       2.50316897E-16
  0.400000006       2.73038371E-16
  0.400999993       2.86316168E-16
  0.402000010       2.89799167E-16
  0.402999997       2.83525036E-16
  0.404000014       2.67917554E-16
  0.405000001       2.43767400E-16
  0.405999988       2.12197370E-16
  0.407000005       1.74613248E-16
  0.407999992       1.32642527E-16
  0.409000009       8.80636597E-17
  0.409999996       4.27289972E-17
  0.411000013      -1.51516306E-18
  0.412000000      -4.29079098E-17
  0.412999988      -7.98488232E-17
  0.414000005      -1.10965492E-16
  0.414999992      -1.35170484E-16
  0.416000009      -1.51705202E-16
  0.416999996      -1.60168689E-16
  0.418000013      -1.60530306E-16
  0.419000000      -1.53125716E-16
  0.419999987      -1.38636569E-16
  0.421000004      -1.18055005E-16
  0.421999991      -9.26347657E-17
  0.423000008      -6.38313971E-17
  0.423999995      -3.32344031E-17
  0.425000012      -2.49469463E-18
  0.425999999       2.67492608E-17
  0.426999986       5.29430995E-17
  0.428000003       7.46827626E-17
  0.428999990       9.07722792E-17
  0.430000007       1.00270662E-16
  0.430999994       1.02526099E-16
  0.432000011       9.71961837E-17
  0.432999998       8.42539173E-17
  0.433999985       6.39796874E-17
  0.435000002       3.69404072E-17
  0.435999990       3.95747938E-18
  0.437000006      -3.39341218E-17
  0.437999994      -7.55330050E-17
  0.439000010      -1.19521788E-16
  0.439999998      -1.64517912E-16
  0.441000015      -2.09121966E-16
  0.442000002      -2.51960988E-16
  0.442999989      -2.91724738E-16
  0.444000006      -3.27193369E-16
  0.444999993      -3.57255918E-16
  0.446000010      -3.80919319E-16
  0.446999997      -3.97309115E-16
  0.448000014      -4.05662687E-16
  0.449000001      -4.05317759E-16
  0.449999988      -3.95698138E-16
  0.451000005      -3.76300025E-16
  0.451999992      -3.46681453E-16
  0.453000009      -3.06457897E-16
  0.453999996      -2.55306609E-16
  0.455000013      -1.92981382E-16
  0.456000000      -1.19338948E-16
  0.456999987      -3.43774079E-17
  0.458000004       6.17143970E-17
  0.458999991       1.68498252E-16
  0.460000008       2.85221775E-16
  0.460999995       4.10751449E-16
  0.462000012       5.43508114E-16
  0.463000000       6.81410583E-16
  0.463999987       8.21832976E-16
  0.465000004       9.61581554E-16
  0.465999991       1.09689687E-15
  0.467000008       1.22348509E-15
  0.467999995       1.33658305E-15
  0.469000012       1.43105878E-15
  0.469999999       1.50154822E-15
  0.470999986       1.54262689E-15
  0.472000003       1.54901256E-15
  0.472999990       1.51579426E-15
  0.474000007       1.43867879E-15
  0.474999994       1.31424700E-15
  0.476000011       1.14020799E-15
  0.476999998       9.15638804E-16
  0.477999985       6.41197641E-16
  0.479000002       3.19298016E-16
  0.479999989      -4.57690613E-17
  0.481000006      -4.47775709E-16
  0.481999993      -8.78569413E-16
  0.483000010      -1.32816407E-15
  0.483999997      -1.78491378E-15
  0.485000014      -2.23576951E-15
  0.486000001      -2.66661515E-15
  0.486999989      -3.06267780E-15
  0.488000005      -3.40899908E-15
  0.488999993      -3.69095496E-15
  0.490000010      -3.89480657E-15
  0.490999997      -4.00826028E-15
  0.492000014      -4.02101660E-15
  0.493000001      -3.92528578E-15
  0.493999988      -3.71624398E-15
  0.495000005      -3.39241015E-15
  0.495999992      -2.95592179E-15
  0.497000009      -2.41269373E-15
  0.497999996      -1.77244503E-15
  0.499000013      -1.04858475E-15
  0.500000000      -2.57954567E-16
  0.500999987       5.79571177E-16
  0.501999974       1.44161916E-15
  0.503000021       2.30397091E-15
  0.504000008       3.14131719E-15
  0.504999995       3.92808692E-15
  0.505999982       4.63932397E-15
  0.507000029       5.25157844E-15
  0.508000016       5.74377700E-15
  0.509000003       6.09804049E-15
  0.509999990       6.30040979E-15
  0.510999978       6.34145573E-15
  0.512000024       6.21673564E-15
  0.513000011       5.92708001E-15
  0.513999999       5.47869211E-15
  0.514999986       4.88304457E-15
  0.515999973       4.15657956E-15
  0.517000020       3.32021182E-15
  0.518000007       2.39864971E-15
  0.518999994       1.41956200E-15
  0.519999981       4.12610342E-16
  0.521000028      -5.91608997E-16
  0.522000015      -1.56267859E-15
  0.523000002      -2.47148459E-15
  0.523999989      -3.29130512E-15
  0.524999976      -3.99882179E-15
  0.526000023      -4.57500875E-15
  0.527000010      -5.00586011E-15
  0.527999997      -5.28292797E-15
  0.528999984      -5.40363864E-15
  0.529999971      -5.37137727E-15
  0.531000018      -5.19532698E-15
  0.532000005      -4.89007198E-15
  0.532999992      -4.47497035E-15
  0.533999979      -3.97332398E-15
  0.535000026      -3.41137522E-15
  0.536000013      -2.81717144E-15
  0.537000000      -2.21934046E-15
  0.537999988      -1.64582938E-15
  0.538999975      -1.12265927E-15
  0.540000021      -6.72749830E-16
  0.541000009      -3.14863402E-16
  0.541999996      -6.27173370E-17
  0.542999983       7.56953309E-17
  0.544000030       9.85437668E-17
  0.545000017       1.03327101E-17
  0.546000004      -1.78200949E-16
  0.546999991      -4.50469433E-16
  0.547999978      -7.84682111E-16
  0.549000025      -1.15473768E-15
  0.550000012      -1.53132810E-15
  0.550999999      -1.88321047E-15
  0.551999986      -2.17859817E-15
  0.552999973      -2.38661189E-15
  0.554000020      -2.47873456E-15
  0.555000007      -2.43020508E-15
  0.555999994      -2.22129499E-15
  0.556999981      -1.83840920E-15
  0.558000028      -1.27496394E-15
  0.559000015      -5.31999212E-16
  0.560000002       3.81503587E-16
  0.560999990       1.44861893E-15
  0.561999977       2.64479516E-15
  0.563000023       3.93848552E-15
  0.564000010       5.29207635E-15
  0.564999998       6.66307795E-15
  0.565999985       8.00553370E-15
  0.566999972       9.27160570E-15
  0.568000019       1.04132613E-14
  0.569000006       1.13840161E-14
  0.569999993       1.21406486E-14
  0.570999980       1.26448365E-14
  0.572000027       1.28646432E-14
  0.573000014       1.27757979E-14
  0.574000001       1.23627186E-14
  0.574999988       1.16192473E-14
  0.575999975       1.05490567E-14
  0.577000022       9.16572150E-15
  0.578000009       7.49244942E-15
  0.578999996       5.56147391E-15
  0.579999983       3.41315060E-15
  0.580999970       1.09477060E-15
  0.582000017      -1.34085157E-15
  0.583000004      -3.83696692E-15
  0.583999991      -6.33459858E-15
  0.584999979      -8.77430334E-15
  0.586000025      -1.10979282E-14
  0.587000012      -1.32502914E-14
  0.588000000      -1.51807430E-14
  0.588999987      -1.68445376E-14
  0.589999974      -1.82039916E-14
  0.591000021      -1.92293758E-14
  0.592000008      -1.98995348E-14
  0.592999995      -2.02022017E-14
  0.593999982      -2.01340375E-14
  0.595000029      -1.97003685E-14
  0.596000016      -1.89146777E-14
  0.597000003      -1.77978580E-14
  0.597999990      -1.63772804E-14
  0.598999977      -1.46857065E-14
  0.600000024      -1.27601075E-14
  0.601000011      -1.06404330E-14
  0.601999998      -8.36837635E-15
  0.602999985      -5.98618724E-15
  0.603999972      -3.53557397E-15
  0.605000019      -1.05672633E-15
  0.606000006       1.41250632E-15
  0.606999993       3.83726635E-15
  0.607999980       6.18615521E-15
  0.609000027       8.43151165E-15
  0.610000014       1.05495150E-14
  0.611000001       1.25201177E-14
  0.611999989       1.43268355E-14
  0.612999976       1.59564185E-14
  0.614000022       1.73984413E-14
  0.615000010       1.86448266E-14
  0.615999997       1.96893622E-14
  0.616999984       2.05272218E-14
  0.617999971       2.11545411E-14
  0.619000018       2.15680440E-14
  0.620000005       2.17647826E-14
  0.620999992       2.17419703E-14
  0.621999979       2.14969305E-14
  0.623000026       2.10271711E-14
  0.624000013       2.03305560E-14
  0.625000000       1.94055892E-14
  0.625999987       1.82517812E-14
  0.626999974       1.68700655E-14
  0.628000021       1.52632694E-14
  0.629000008       1.34365836E-14
  0.629999995       1.13980091E-14
  0.630999982       9.15877075E-15
  0.632000029       6.73365232E-15
  0.633000016       4.14123979E-15
  0.634000003       1.40405325E-15
  0.634999990      -1.45144400E-15
  0.635999978      -4.39497021E-15
  0.637000024      -7.39268334E-15
  0.638000011      -1.04075692E-14
  0.638999999      -1.33999511E-14
  0.639999986      -1.63281084E-14
  0.640999973      -1.91489856E-14
  0.642000020      -2.18189639E-14
  0.643000007      -2.42946871E-14
  0.643999994      -2.65338983E-14
  0.644999981      -2.84962788E-14
  0.646000028      -3.01442695E-14
  0.647000015      -3.14438078E-14
  0.648000002      -3.23650476E-14
  0.648999989      -3.28829506E-14
  0.649999976      -3.29778183E-14
  0.651000023      -3.26356848E-14
  0.652000010      -3.18486455E-14
  0.652999997      -3.06150436E-14
  0.653999984      -2.89395583E-14
  0.654999971      -2.68332296E-14
  0.656000018      -2.43133455E-14
  0.657000005      -2.14032757E-14
  0.657999992      -1.81322344E-14
  0.658999979      -1.45349719E-14
  0.660000026      -1.06514241E-14
  0.661000013      -6.52630585E-15
  0.662000000      -2.20867356E-15
  0.662999988       2.24855696E-15
  0.663999975       6.78912408E-15
  0.665000021       1.13539735E-14
  0.666000009       1.58818559E-14
  0.666999996       2.03099612E-14
  0.667999983       2.45746078E-14
  0.669000030       2.86119869E-14
  0.670000017       3.23589625E-14
  0.671000004       3.57539316E-14
  0.671999991       3.87377305E-14
  0.672999978       4.12546177E-14
  0.674000025       4.32532699E-14
  0.675000012       4.46878455E-14
  0.675999999       4.55190220E-14
  0.676999986       4.57150560E-14
  0.677999973       4.52527894E-14
  0.679000020       4.41185954E-14
  0.680000007       4.23092178E-14
  0.680999994       3.98324867E-14
  0.681999981       3.67078634E-14
  0.683000028       3.29667696E-14
  0.684000015       2.86526885E-14
  0.685000002       2.38210093E-14
  0.685999990       1.85385781E-14
  0.686999977       1.28829569E-14
  0.688000023       6.94137275E-15
  0.689000010       8.09369945E-16
  0.689999998      -5.41082910E-15
  0.690999985      -1.16122212E-14
  0.691999972      -1.76851518E-14
  0.693000019      -2.35196248E-14
  0.694000006      -2.90077410E-14
  0.694999993      -3.40462047E-14
  0.695999980      -3.85388268E-14
  0.697000027      -4.23989525E-14
  0.698000014      -4.55517378E-14
  0.699000001      -4.79362135E-14
  0.699999988      -4.95070293E-14
  0.700999975      -5.02358673E-14
  0.702000022      -5.01124139E-14
  0.703000009      -4.91448719E-14
  0.703999996      -4.73600041E-14
  0.704999983      -4.48026151E-14
  0.705999970      -4.15345519E-14
  0.707000017      -3.76331927E-14
  0.708000004      -3.31894682E-14
  0.708999991      -2.83054474E-14
  0.709999979      -2.30915801E-14
  0.711000025      -1.76636659E-14
  0.712000012      -1.21396203E-14
  0.713000000      -6.63616602E-15
  0.713999987      -1.26553477E-15
  0.714999974       3.86769982E-15
  0.716000021       8.66955501E-15
  0.717000008       1.30592372E-14
  0.717999995       1.69713080E-14
  0.718999982       2.03573459E-14
  0.720000029       2.31870102E-14
  0.721000016       2.54485171E-14
  0.722000003       2.71484343E-14
  0.722999990       2.83108413E-14
  0.723999977       2.89758553E-14
  0.725000024       2.91975611E-14
  0.726000011       2.90414225E-14
  0.726999998       2.85812701E-14
  0.727999985       2.78959374E-14
  0.728999972       2.70656893E-14
  0.730000019       2.61685832E-14
  0.731000006       2.52768743E-14
  0.731999993       2.44536125E-14
  0.732999980       2.37495858E-14
  0.734000027       2.32006983E-14
  0.735000014       2.28259404E-14
  0.736000001       2.26260017E-14
  0.736999989       2.25826421E-14
  0.737999976       2.26588378E-14
  0.739000022       2.27997264E-14
  0.740000010       2.29343522E-14
  0.740999997       2.29781709E-14
  0.741999984       2.28362200E-14
  0.742999971       2.24068861E-14
  0.744000018       2.15861264E-14
  0.745000005       2.02720141E-14
  0.745999992       1.83694290E-14
  0.746999979       1.57947504E-14
  0.748000026       1.24803393E-14
  0.749000013       8.37866526E-15
  0.750000000       3.46590212E-15
  0.750999987      -2.25516678E-15
  0.751999974      -8.75305467E-15
  0.753000021      -1.59664016E-14
  0.754000008      -2.38038027E-14
  0.754999995      -3.21446666E-14
  0.755999982      -4.08411267E-14
  0.757000029      -4.97209526E-14
  0.758000016      -5.85914035E-14
  0.759000003      -6.72439264E-14
  0.759999990      -7.54595158E-14
  0.760999978      -8.30146498E-14
  0.762000024      -8.96875144E-14
  0.763000011      -9.52644200E-14
  0.763999999      -9.95460835E-14
  0.764999986      -1.02353632E-13
  0.765999973      -1.03534118E-13
  0.767000020      -1.02965332E-13
  0.768000007      -1.00559684E-13
  0.768999994      -9.62671308E-14
  0.769999981      -9.00769260E-14
  0.771000028      -8.20181732E-14
  0.772000015      -7.21590959E-14
  0.773000002      -6.06051328E-14
  0.773999989      -4.74957801E-14
  0.774999976      -3.30003968E-14
  0.776000023      -1.73130112E-14
  0.777000010      -6.46358242E-16
  0.777999997       1.67746913E-14
  0.778999984       3.47200736E-14
  0.779999971       5.29616159E-14
  0.781000018       7.12800451E-14
  0.782000005       8.94716633E-14
  0.782999992       1.07354474E-13
  0.783999979       1.24773537E-13
  0.785000026       1.41605423E-13
  0.786000013       1.57761621E-13
  0.787000000       1.73190645E-13
  0.787999988       1.87879023E-13
  0.788999975       2.01850974E-13
  0.790000021       2.15166792E-13
  0.791000009       2.27920168E-13
  0.791999996       2.40234319E-13
  0.792999983       2.52257254E-13
  0.794000030       2.64156373E-13
  0.795000017       2.76112412E-13
  0.796000004       2.88313102E-13
  0.796999991       3.00946740E-13
  0.797999978       3.14195881E-13
  0.799000025       3.28231447E-13
  0.800000012       3.43207233E-13
  0.800999999       3.59255296E-13
  0.801999986       3.76482238E-13
  0.802999973       3.94966313E-13
  0.804000020       4.14755822E-13
  0.805000007       4.35868491E-13
  0.805999994       4.58291933E-13
  0.806999981       4.81985328E-13
  0.808000028       5.06882026E-13
  0.809000015       5.32892686E-13
  0.810000002       5.59909703E-13
  0.810999990       5.87811755E-13
  0.811999977       6.16469007E-13
  0.813000023       6.45747887E-13
  0.814000010       6.75516717E-13
  0.814999998       7.05650273E-13
  0.815999985       7.36034497E-13
  0.816999972       7.66570401E-13
  0.818000019       7.97177374E-13
  0.819000006       8.27795514E-13
  0.819999993       8.58387363E-13
  0.820999980       8.88938445E-13
  0.822000027       9.19457327E-13
  0.823000014       9.49974257E-13
  0.824000001       9.80539326E-13
  0.824999988       1.01122019E-12
  0.825999975       1.04209859E-12
  0.827000022       1.07326680E-12
  0.828000009       1.10482402E-12
  0.828999996       1.13687196E-12
  0.829999983       1.16951132E-12
  0.830999970       1.20283731E-12
  0.832000017       1.23693677E-12
  0.833000004       1.27188472E-12
  0.833999991       1.30774211E-12
  0.834999979       1.34455381E-12
  0.836000025       1.38234725E-12
  0.837000012       1.42113231E-12
  0.838000000       1.46090128E-12
  0.838999987       1.50162955E-12
  0.839999974       1.54327722E-12
  0.841000021       1.58579139E-12
  0.842000008       1.62910798E-12
  0.842999995       1.67315510E-12
  0.843999982       1.71785557E-12
  0.845000029       1.76313022E-12
  0.846000016       1.80890112E-12
  0.847000003       1.85509399E-12
  0.847999990       1.90164095E-12
  0.848999977       1.94848304E-12
  0.850000024       1.99557233E-12
  0.851000011       2.04287260E-12
  0.851999998       2.09036130E-12
  0.852999985       2.13802912E-12
  0.853999972       2.18588103E-12
  0.855000019       2.23393439E-12
  0.856000006       2.28221912E-12