   0.00000000       0.00000000    
   1.00000005E-03   0.00000000    
   2.00000009E-03   0.00000000    
   3.00000003E-03   0.00000000    
   4.00000019E-03   0.00000000    
   4.99999989E-03   0.00000000    
   6.00000005E-03   0.00000000    
   7.00000022E-03   0.00000000    
   8.00000038E-03   0.00000000    
   8.99999961E-03   0.00000000    
   9.99999978E-03   0.00000000    
   1.09999999E-02   0.00000000    
   1.20000001E-02   0.00000000    
   1.30000003E-02   0.00000000    
   1.40000004E-02  -2.94207713E-38
   1.49999997E-02  -1.44273789E-37
   1.60000008E-02  -5.71222840E-37
   1.70000009E-02  -2.00014231E-36
   1.79999992E-02  -6.33425577E-36
   1.89999994E-02  -1.83716107E-35
   1.99999996E-02  -4.92196704E-35
   2.09999997E-02  -1.22560783E-34
   2.19999999E-02  -2.85087364E-34
   2.30000000E-02  -6.21487537E-34
   2.40000002E-02  -1.27161875E-33
   2.50000004E-02  -2.44006068E-33
   2.60000005E-02  -4.37197243E-33
   2.70000007E-02  -7.23903070E-33
   2.80000009E-02  -1.08256249E-32
   2.89999992E-02  -1.38175041E-32
   2.99999993E-02  -1.23588199E-32
   3.09999995E-02   2.65550492E-33
   3.20000015E-02   5.03596474E-32
   3.29999998E-02   1.67931440E-31
   3.40000018E-02   4.23430274E-31
   3.50000001E-02   9.35507399E-31
   3.59999985E-02   1.90245880E-30
   3.70000005E-02   3.64333998E-30
   3.79999988E-02   6.65373362E-30
   3.90000008E-02   1.16779755E-29
   3.99999991E-02   1.97977910E-29
   4.10000011E-02   3.25339220E-29
   4.19999994E-02   5.19518820E-29
   4.30000015E-02   8.07548264E-29
   4.39999998E-02   1.22335275E-28
   4.50000018E-02   1.80742699E-28
   4.60000001E-02   2.60505497E-28
   4.69999984E-02   3.66225088E-28
   4.80000004E-02   5.01836821E-28
   4.89999987E-02   6.69410782E-28
   5.00000007E-02   8.67348906E-28
   5.09999990E-02   1.08782744E-27
   5.20000011E-02   1.31334498E-27
   5.29999994E-02   1.51227139E-27
   5.40000014E-02   1.63336559E-27
   5.49999997E-02   1.59934837E-27
   5.60000017E-02   1.29978884E-27
   5.70000000E-02   5.83804255E-28
   5.79999983E-02  -7.46619773E-28
   5.90000004E-02  -2.94150824E-27
   5.99999987E-02  -6.30436296E-27
   6.10000007E-02  -1.11881353E-26
   6.19999990E-02  -1.79831767E-26
   6.30000010E-02  -2.70942074E-26
   6.40000030E-02  -3.89031285E-26
   6.49999976E-02  -5.37143710E-26
   6.59999996E-02  -7.16798462E-26
   6.70000017E-02  -9.27012452E-26
   6.80000037E-02  -1.16308777E-25
   6.89999983E-02  -1.41517357E-25
   7.00000003E-02  -1.66664160E-25
   7.10000023E-02  -1.89235011E-25
   7.19999969E-02  -2.05691463E-25
   7.29999989E-02  -2.11315671E-25
   7.40000010E-02  -2.00095924E-25
   7.50000030E-02  -1.64681173E-25
   7.59999976E-02  -9.64391085E-26
   7.69999996E-02   1.43439318E-26
   7.80000016E-02   1.78079248E-25
   7.90000036E-02   4.05266788E-25
   7.99999982E-02   7.05622768E-25
   8.10000002E-02   1.08691415E-24
   8.20000023E-02   1.55348347E-24
   8.29999968E-02   2.10447086E-24
   8.39999989E-02   2.73176438E-24
   8.50000009E-02   3.41774658E-24
   8.60000029E-02   4.13294996E-24
   8.69999975E-02   4.83377557E-24
   8.79999995E-02   5.46048454E-24
   8.90000015E-02   5.93572274E-24
   9.00000036E-02   6.16388893E-24
   9.09999982E-02   6.03168767E-24
   9.20000002E-02   5.41024277E-24
   9.30000022E-02   4.15914448E-24
   9.39999968E-02   2.13277933E-24
   9.49999988E-02  -8.10775363E-25
   9.60000008E-02  -4.79810052E-24
   9.70000029E-02  -9.92599853E-24
   9.79999974E-02  -1.62444257E-23
   9.89999995E-02  -2.37372254E-23
  0.100000001      -3.23013234E-23
  0.101000004      -4.17254407E-23
  0.101999998      -5.16697172E-23
  0.103000000      -6.16478957E-23
  0.104000002      -7.10141990E-23
  0.104999997      -7.89571574E-23
  0.105999999      -8.45028875E-23
  0.107000001      -8.65304367E-23
  0.108000003      -8.38015396E-23
  0.108999997      -7.50069838E-23
  0.109999999      -5.88311511E-23
  0.111000001      -3.40354669E-23
  0.112000003       4.39449167E-25
  0.112999998       4.53546553E-23
  0.114000000       1.01039962E-22
  0.115000002       1.67252156E-22
  0.115999997       2.43031258E-22
  0.116999999       3.26563676E-22
  0.118000001       4.15062687E-22
  0.119000003       5.04678422E-22
  0.119999997       5.90450902E-22
  0.120999999       6.66319580E-22
  0.122000001       7.25203238E-22
  0.123000003       7.59162930E-22
  0.123999998       7.59658057E-22
  0.125000000       7.17902299E-22
  0.126000002       6.25322492E-22
  0.127000004       4.74115804E-22
  0.128000006       2.57895796E-22
  0.128999993      -2.75916723E-23
  0.129999995      -3.83709366E-22
  0.130999997      -8.08161769E-22
  0.131999999      -1.29426462E-21
  0.133000001      -1.83030250E-21
  0.134000003      -2.39903178E-21
  0.135000005      -2.97739077E-21
  0.136000007      -3.53648025E-21
  0.136999995      -4.04187185E-21
  0.137999997      -4.45430096E-21
  0.138999999      -4.73078325E-21
  0.140000001      -4.82618003E-21
  0.141000003      -4.69521933E-21
  0.142000005      -4.29494913E-21
  0.143000007      -3.58757562E-21
  0.143999994      -2.54359856E-21
  0.144999996      -1.14513291E-21
  0.145999998       6.10736163E-22
  0.147000000       2.70874590E-21
  0.148000002       5.11260425E-21
  0.149000004       7.76272008E-21
  0.150000006       1.05747585E-20
  0.150999993       1.34392519E-20
  0.151999995       1.62224917E-20
  0.152999997       1.87688994E-20
  0.153999999       2.09050093E-20
  0.155000001       2.24451549E-20
  0.156000003       2.31988619E-20
  0.157000005       2.29798384E-20
  0.158000007       2.16163991E-20
  0.158999994       1.89629782E-20
  0.159999996       1.49123329E-20
  0.160999998       9.40790073E-21
  0.162000000       2.45565407E-21
  0.163000003      -5.86522834E-21
  0.164000005      -1.53936761E-20
  0.165000007      -2.58808028E-20
  0.165999994      -3.69875330E-20
  0.166999996      -4.82864905E-20
  0.167999998      -5.92687446E-20
  0.169000000      -6.93558890E-20
  0.170000002      -7.79176090E-20
  0.171000004      -8.42948226E-20
  0.172000006      -8.78279501E-20
  0.172999993      -8.78897495E-20
  0.173999995      -8.39216672E-20
  0.174999997      -7.54724244E-20
  0.175999999      -6.22371081E-20
  0.177000001      -4.40949208E-20
  0.178000003      -2.11433746E-20
  0.179000005       6.27335634E-21
  0.180000007       3.75442320E-20
  0.180999994       7.17815509E-20
  0.181999996       1.07823600E-19
  0.182999998       1.44251432E-19
  0.184000000       1.79420942E-19
  0.185000002       2.11510858E-19
  0.186000004       2.38586392E-19
  0.187000006       2.58677705E-19
  0.187999994       2.69870984E-19
  0.188999996       2.70409737E-19
  0.189999998       2.58802118E-19
  0.191000000       2.33929960E-19
  0.192000002       1.95154357E-19
  0.193000004       1.42411705E-19
  0.194000006       7.62942929E-20
  0.194999993      -1.89072566E-21
  0.195999995      -9.00897656E-20
  0.196999997      -1.85503912E-19
  0.197999999      -2.84626852E-19
  0.199000001      -3.83322553E-19
  0.200000003      -4.76944018E-19
  0.201000005      -5.60492258E-19
  0.202000007      -6.28812931E-19
  0.202999994      -6.76825544E-19
  0.203999996      -6.99777893E-19
  0.204999998      -6.93516394E-19
  0.206000000      -6.54760604E-19
  0.207000002      -5.81369314E-19
  0.208000004      -4.72583690E-19
  0.209000006      -3.29232618E-19
  0.209999993      -1.53886006E-19
  0.210999995       4.90583244E-20
  0.211999997       2.73366028E-19
  0.213000000       5.11045624E-19
  0.214000002       7.52522806E-19
  0.215000004       9.86911464E-19
  0.216000006       1.20238012E-18
  0.216999993       1.38660751E-18
  0.217999995       1.52731331E-18
  0.218999997       1.61284927E-18
  0.219999999       1.63282713E-18
  0.221000001       1.57875826E-18
  0.222000003       1.44467435E-18
  0.223000005       1.22769754E-18
  0.224000007       9.28526574E-19
  0.224999994       5.51807172E-19
  0.225999996       1.06354476E-19
  0.226999998      -3.94797642E-19
  0.228000000      -9.34542556E-19
  0.229000002      -1.49205577E-18
  0.230000004      -2.04336379E-18
  0.231000006      -2.56212453E-18
  0.231999993      -3.02060014E-18
  0.232999995      -3.39080234E-18
  0.233999997      -3.64576836E-18
  0.234999999      -3.76092472E-18
  0.236000001      -3.71547983E-18
  0.237000003      -3.49378757E-18
  0.238000005      -3.08660915E-18
  0.238999993      -2.49221040E-18
  0.239999995      -1.71722002E-18
  0.240999997      -7.77190056E-19
  0.241999999       3.03199357E-19
  0.243000001       1.49033420E-18
  0.244000003       2.74228964E-18
  0.245000005       4.00989492E-18
  0.246000007       5.23823166E-18
  0.246999994       6.36854005E-18
  0.247999996       7.34048182E-18
  0.248999998       8.09469021E-18
  0.250000000       8.57551541E-18
  0.250999987       8.73386425E-18
  0.252000004       8.53000394E-18
  0.252999991       7.93620902E-18
  0.254000008       6.93910897E-18
  0.254999995       5.54161462E-18
  0.256000012       3.76428969E-18
  0.256999999       1.64606274E-18
  0.257999986      -7.55808574E-19
  0.259000003      -3.36658560E-18
  0.259999990      -6.09573795E-18
  0.261000007      -8.83946875E-18
  0.261999995      -1.14840346E-17
  0.263000011      -1.39097782E-17
  0.263999999      -1.59957523E-17
  0.264999986      -1.76247787E-17
  0.266000003      -1.86887563E-17
  0.266999990      -1.90940069E-17
  0.268000007      -1.87664236E-17
  0.268999994      -1.76561851E-17
  0.270000011      -1.57418029E-17
  0.270999998      -1.30332654E-17
  0.272000015      -9.57408123E-18
  0.273000002      -5.44206178E-18
  0.273999989      -7.48705367E-19
  0.275000006       4.36288887E-18
  0.275999993       9.72158325E-18
  0.277000010       1.51332015E-17
  0.277999997       2.03868489E-17
  0.279000014       2.52623722E-17
  0.280000001       2.95387256E-17
  0.280999988       3.30029381E-17
  0.282000005       3.54593700E-17
  0.282999992       3.67388629E-17
  0.284000009       3.67074003E-17
  0.284999996       3.52738864E-17
  0.286000013       3.23966908E-17
  0.287000000       2.80885522E-17
  0.287999988       2.24196006E-17
  0.289000005       1.55182243E-17
  0.289999992       7.56963566E-18
  0.291000009      -1.18796185E-18
  0.291999996      -1.04695564E-17
  0.293000013      -1.99517651E-17
  0.294000000      -2.92833021E-17
  0.294999987      -3.80971630E-17
  0.296000004      -4.60241241E-17
  0.296999991      -5.27071215E-17
  0.298000008      -5.78159080E-17
  0.298999995      -6.10614868E-17
  0.300000012      -6.22096929E-17
  0.300999999      -6.10933961E-17
  0.301999986      -5.76226919E-17
  0.303000003      -5.17926501E-17
  0.303999990      -4.36881727E-17
  0.305000007      -3.34856344E-17
  0.305999994      -2.14510928E-17
  0.307000011      -7.93496081E-18
  0.307999998       6.63678811E-18
  0.308999985       2.17747355E-17
  0.310000002       3.69411252E-17
  0.310999990       5.15675313E-17
  0.312000006       6.50745503E-17
  0.312999994       7.68928238E-17
  0.314000010       8.64847175E-17
  0.314999998       9.33658941E-17
  0.316000015       9.71258932E-17
  0.317000002       9.74470444E-17
  0.317999989       9.41208717E-17
  0.319000006       8.70613021E-17
  0.319999993       7.63141613E-17
  0.321000010       6.20623092E-17
  0.321999997       4.46262088E-17
  0.323000014       2.44596166E-17
  0.324000001       2.14038856E-18
  0.324999988      -2.16434917E-17
  0.326000005      -4.61123909E-17
  0.326999992      -7.04175414E-17
  0.328000009      -9.36670474E-17
  0.328999996      -1.14954640E-16
  0.330000013      -1.33390312E-16
  0.331000000      -1.48131914E-16
  0.331999987      -1.58416760E-16
  0.333000004      -1.63592158E-16
  0.333999991      -1.63143840E-16
  0.335000008      -1.56721305E-16
  0.335999995      -1.44159025E-16
  0.337000012      -1.25492815E-16
  0.338000000      -1.00970364E-16
  0.338999987      -7.10555028E-17
  0.340000004      -3.64256460E-17
  0.340999991       2.03786160E-18
  0.342000008       4.32665786E-17
  0.342999995       8.60288748E-17
  0.344000012       1.28960515E-16
  0.344999999       1.70601475E-16
  0.345999986       2.09438094E-16
  0.347000003       2.43949592E-16
  0.347999990       2.72657947E-16
  0.349000007       2.94179439E-16
  0.349999994       3.07276713E-16
  0.351000011       3.10909346E-16
  0.351999998       3.04281710E-16
  0.352999985       2.86885824E-16
  0.354000002       2.58537908E-16
  0.354999989       2.19406733E-16
  0.356000006       1.70032348E-16
  0.356999993       1.11333891E-16
  0.358000010       4.46051851E-17
  0.358999997      -2.85024138E-17
  0.360000014      -1.06010448E-16
  0.361000001      -1.85657062E-16
  0.361999989      -2.64953441E-16
  0.363000005      -3.41252157E-16
  0.363999993      -4.11825910E-16
  0.365000010      -4.73954745E-16
  0.365999997      -5.25019343E-16
  0.367000014      -5.62597695E-16
  0.368000001      -5.84561736E-16
  0.368999988      -5.89170760E-16
  0.370000005      -5.75157765E-16
  0.370999992      -5.41805313E-16
  0.372000009      -4.89007261E-16
  0.372999996      -4.17312619E-16
  0.374000013      -3.27949399E-16
  0.375000000      -2.22825331E-16
  0.375999987      -1.04504060E-16
  0.377000004       2.38442256E-17
  0.377999991       1.58517637E-16
  0.379000008       2.95381962E-16
  0.379999995       4.29992676E-16
  0.381000012       5.57736150E-16
  0.381999999       6.73986657E-16
  0.382999986       7.74273346E-16
  0.384000003       8.54452321E-16
  0.384999990       9.10876891E-16
  0.386000007       9.40558831E-16
  0.386999995       9.41315443E-16
  0.388000011       9.11893331E-16
  0.388999999       8.52064058E-16
  0.389999986       7.62686253E-16
  0.391000003       6.45728103E-16
  0.391999990       5.04248560E-16
  0.393000007       3.42334136E-16
  0.393999994       1.64992118E-16
  0.395000011      -2.19988353E-17
  0.395999998      -2.12276621E-16
  0.397000015      -3.99117001E-16
  0.398000002      -5.75681072E-16
  0.398999989      -7.35280238E-16
  0.400000006      -8.71648466E-16
  0.400999993      -9.79211486E-16
  0.402000010      -1.05334095E-15
  0.402999997      -1.09058192E-15
  0.404000014      -1.08884370E-15
  0.405000001      -1.04754237E-15
  0.405999988      -9.67687814E-16
  0.407000005      -8.51907516E-16
  0.407999992      -7.04403134E-16
  0.409000009      -5.30837930E-16
  0.409999996      -3.38156199E-16
  0.411000013      -1.34338949E-16
  0.412000000       7.18971823E-17
  0.412999988       2.71447643E-16
  0.414000005       4.55201700E-16
  0.414999992       6.14443470E-16
  0.416000009       7.41255526E-16
  0.416999996       8.28907924E-16
  0.418000013       8.72214390E-16
  0.419000000       8.67838247E-16
  0.419999987       8.14532981E-16
  0.421000004       7.13301268E-16
  0.421999991       5.67463582E-16
  0.423000008       3.82626196E-16
  0.423999995       1.66546411E-16
  0.425000012      -7.11058748E-17
  0.425999999      -3.19084537E-16
  0.426999986      -5.64992416E-16
  0.428000003      -7.95781207E-16
  0.428999990      -9.98307844E-16
  0.430000007      -1.15992649E-15
  0.430999994      -1.26909136E-15
  0.432000011      -1.31594467E-15
  0.432999998      -1.29286397E-15
  0.433999985      -1.19494104E-15
  0.435000002      -1.02036903E-15
  0.435999990      -7.70716179E-16
  0.437000006      -4.51066908E-16
  0.437999994      -7.00185029E-17
  0.439000010       3.60474961E-16
  0.439999998       8.25412325E-16
  0.441000015       1.30720350E-15
  0.442000002       1.78626374E-15
  0.442999989       2.24172669E-15
  0.444000006       2.65224947E-15
  0.444999993       2.99688304E-15
  0.446000010       3.25597178E-15
  0.446999997       3.41204713E-15
  0.448000014       3.45067713E-15
  0.449000001       3.36123320E-15
  0.449999988       3.13753879E-15
  0.451000005       2.77836781E-15
  0.451999992       2.28776505E-15
  0.453000009       1.67516478E-15
  0.453999996       9.55299110E-16
  0.455000013       1.47885256E-16
  0.456000000      -7.22901222E-16
  0.456999987      -1.62915638E-15
  0.458000004      -2.54015842E-15
  0.458999991      -3.42342956E-15
  0.460000008      -4.24591189E-15
  0.460999995      -4.97521192E-15
  0.462000012      -5.58087139E-15
  0.463000000      -6.03560653E-15
  0.463999987      -6.31647122E-15
  0.465000004      -6.40589249E-15
  0.465999991      -6.29252984E-15
  0.467000008      -5.97192575E-15
  0.467999995      -5.44690635E-15
  0.469000012      -4.72771524E-15
  0.469999999      -3.83186440E-15
  0.470999986      -2.78370178E-15
  0.472000003      -1.61370523E-15
  0.472999990      -3.57521543E-16
  0.474000007       9.45215077E-16
  0.474999994       2.25224515E-15
  0.476000011       3.52017554E-15
  0.476999998       4.70604899E-15
  0.477999985       5.76892372E-15
  0.479000002       6.67140979E-15
  0.479999989       7.38109592E-15
  0.481000006       7.87181260E-15
  0.481999993       8.12467396E-15
  0.483000010       8.12886169E-15
  0.483999997       7.88211252E-15
  0.485000014       7.39088932E-15
  0.486000001       6.67022014E-15
  0.486999989       5.74321627E-15
  0.488000005       4.64028027E-15
  0.488999993       3.39803255E-15
  0.490000010       2.05799741E-15
  0.490999997       6.65100276E-16
  0.492000014      -7.33969190E-16
  0.493000001      -2.09246297E-15
  0.493999988      -3.36528265E-15
  0.495000005      -4.51062578E-15
  0.495999992      -5.49150137E-15
  0.497000009      -6.27706048E-15
  0.497999996      -6.84368782E-15
  0.499000013      -7.17581156E-15
  0.500000000      -7.26640597E-15
  0.500999987      -7.11716131E-15
  0.501999974      -6.73832413E-15
  0.503000021      -6.14821025E-15
  0.504000008      -5.37241912E-15
  0.504999995      -4.44277802E-15
  0.505999982      -3.39606086E-15
  0.507000029      -2.27254069E-15
  0.508000016      -1.11442632E-15
  0.509000003       3.57482248E-17
  0.509999990       1.13671832E-15
  0.510999978       2.15000658E-15
  0.512000024       3.04130356E-15
  0.513000011       3.78166076E-15
  0.513999999       4.34845455E-15
  0.514999986       4.72608301E-15
  0.515999973       4.90638075E-15
  0.517000020       4.88873832E-15
  0.518000007       4.67992734E-15
  0.518999994       4.29365151E-15
  0.519999981       3.74984450E-15
  0.521000028       3.07375191E-15
  0.522000015       2.29483608E-15
  0.523000002       1.44555935E-15
  0.523999989       5.60090531E-16
  0.524999976      -3.27008160E-16
  0.526000023      -1.18206338E-15
  0.527000010      -1.97349275E-15
  0.527999997      -2.67288489E-15
  0.528999984      -3.25591799E-15
  0.529999971      -3.70309294E-15
  0.531000018      -4.00025624E-15
  0.532000005      -4.13891045E-15
  0.532999992      -4.11630230E-15
  0.533999979      -3.93530491E-15
  0.535000026      -3.60410740E-15
  0.536000013      -3.13573291E-15
  0.537000000      -2.54741834E-15
  0.537999988      -1.85988361E-15
  0.538999975      -1.09652788E-15
  0.540000021      -2.82584750E-16
  0.541000009       5.55728311E-16
  0.541999996       1.39203756E-15
  0.542999983       2.20059033E-15
  0.544000030       2.95696174E-15
  0.545000017       3.63867143E-15
  0.546000004       4.22570592E-15
  0.546999991       4.70093460E-15
  0.547999978       5.05042463E-15
  0.549000025       5.26365755E-15
  0.550000012       5.33365551E-15
  0.550999999       5.25702613E-15
  0.551999986       5.03394052E-15
  0.552999973       4.66805278E-15
  0.554000020       4.16637465E-15
  0.555000007       3.53911266E-15
  0.555999994       2.79947290E-15
  0.556999981       1.96344016E-15
  0.558000028       1.04952930E-15
  0.559000015       7.85082678E-17
  0.560000002      -9.26912919E-16
  0.560999990      -1.94243268E-15
  0.561999977      -2.94255434E-15
  0.563000023      -3.90103523E-15
  0.564000010      -4.79139391E-15
  0.564999998      -5.58747613E-15
  0.565999985      -6.26407800E-15
  0.566999972      -6.79762363E-15
  0.568000019      -7.16687960E-15
  0.569000006      -7.35369695E-15
  0.569999993      -7.34375109E-15
  0.570999980      -7.12725963E-15
  0.572000027      -6.69964479E-15
  0.573000014      -6.06210172E-15
  0.574000001      -5.22204960E-15
  0.574999988      -4.19341914E-15
  0.575999975      -2.99675259E-15
  0.577000022      -1.65908608E-15
  0.578000009      -2.13593916E-16
  0.578999996       1.30101741E-15
  0.579999983       2.84136779E-15
  0.580999970       4.36050655E-15
  0.582000017       5.80923994E-15
  0.583000004       7.13765273E-15
  0.583999991       8.29677496E-15
  0.584999979       9.24034934E-15
  0.586000025       9.92662983E-15
  0.587000012       1.03201436E-14
  0.588000000       1.03933467E-14
  0.588999987       1.01280958E-14
  0.589999974       9.51686748E-15
  0.591000021       8.56365895E-15
  0.592000008       7.28450706E-15
  0.592999995       5.70759387E-15
  0.593999982       3.87289256E-15
  0.595000029       1.83135575E-15
  0.596000016      -3.56361849E-16
  0.597000003      -2.62161186E-15
  0.597999990      -4.88985302E-15
  0.598999977      -7.08308136E-15
  0.600000024      -9.12251096E-15
  0.601000011      -1.09314100E-14
  0.601999998      -1.24379919E-14
  0.602999985      -1.35782473E-14
  0.603999972      -1.42986056E-14
  0.605000019      -1.45583178E-14
  0.606000006      -1.43314417E-14
  0.606999993      -1.36083610E-14
  0.607999980      -1.23967380E-14
  0.609000027      -1.07218515E-14
  0.610000014      -8.62628603E-15
  0.611000001      -6.16896171E-15
  0.611999989      -3.42351087E-15
  0.612999976      -4.76059463E-16
  0.614000022       2.57753354E-15
  0.615000010       5.63488075E-15
  0.615999997       8.59060561E-15
  0.616999984       1.13400940E-14
  0.617999971       1.37833098E-14
  0.619000018       1.58285386E-14
  0.620000005       1.73959053E-14
  0.620999992       1.84205407E-14
  0.621999979       1.88552431E-14
  0.623000026       1.86725550E-14
  0.624000013       1.78661254E-14
  0.625000000       1.64513314E-14
  0.625999987       1.44650917E-14
  0.626999974       1.19648757E-14
  0.628000021       9.02694616E-15
  0.629000008       5.74386763E-15
  0.629999995       2.22138160E-15
  0.630999982      -1.42524644E-15
  0.632000029      -5.07527488E-15
  0.633000016      -8.60677970E-15
  0.634000003      -1.19010314E-14
  0.634999990      -1.48467935E-14
  0.635999978      -1.73443718E-14
  0.637000024      -1.93092680E-14
  0.638000011      -2.06752814E-14
  0.638999999      -2.13969586E-14
  0.639999986      -2.14512686E-14
  0.640999973      -2.08384555E-14
  0.642000020      -1.95820245E-14
  0.643000007      -1.77278626E-14
  0.643999994      -1.53425212E-14
  0.644999981      -1.25107215E-14
  0.646000028      -9.33218380E-15
  0.647000015      -5.91789648E-15
  0.648000002      -2.38596963E-15
  0.648999989       1.14277334E-15
  0.649999976       4.54929326E-15
  0.651000023       7.72075021E-15
  0.652000010       1.05546675E-14
  0.652999997       1.29626848E-14
  0.653999984       1.48737613E-14
  0.654999971       1.62366966E-14
  0.656000018       1.70218843E-14
  0.657000005       1.72222296E-14
  0.657999992       1.68531960E-14
  0.658999979       1.59519784E-14
  0.660000026       1.45758412E-14
  0.661000013       1.27996978E-14
  0.662000000       1.07130000E-14
  0.662999988       8.41608548E-15
  0.663999975       6.01611376E-15
  0.665000021       3.62274763E-15
  0.666000009       1.34375202E-15
  0.666999996      -7.19323566E-16
  0.667999983      -2.47521005E-15
  0.669000030      -3.84657821E-15
  0.670000017      -4.77314882E-15
  0.671000004      -5.21413916E-15
  0.671999991      -5.14994804E-15
  0.672999978      -4.58301999E-15
  0.674000025      -3.53785376E-15
  0.675000012      -2.06015523E-15
  0.675999999      -2.15169172E-16
  0.676999986       1.91474699E-15
  0.677999973       4.23321698E-15
  0.679000020       6.63348601E-15
  0.680000007       9.00247538E-15
  0.680999994       1.12250941E-14
  0.681999981       1.31886486E-14
  0.683000028       1.47871844E-14
  0.684000015       1.59255950E-14
  0.685000002       1.65233512E-14
  0.685999990       1.65177117E-14
  0.686999977       1.58662857E-14
  0.688000023       1.45488683E-14
  0.689000010       1.25684671E-14
  0.689999998       9.95149787E-15
  0.690999985       6.74712734E-15
  0.691999972       3.02580053E-15
  0.693000019      -1.12300380E-15
  0.694000006      -5.59369759E-15
  0.694999993      -1.02680874E-14
  0.695999980      -1.50193290E-14
  0.697000027      -1.97161843E-14
  0.698000014      -2.42274378E-14
  0.699000001      -2.84262970E-14
  0.699999988      -3.21946415E-14
  0.700999975      -3.54269497E-14
  0.702000022      -3.80337851E-14
  0.703000009      -3.99446914E-14
  0.703999996      -4.11104256E-14
  0.704999983      -4.15044450E-14
  0.705999970      -4.11235919E-14
  0.707000017      -3.99879782E-14
  0.708000004      -3.81400369E-14
  0.708999991      -3.56428517E-14
  0.709999979      -3.25777477E-14
  0.711000025      -2.90413039E-14
  0.712000012      -2.51418556E-14
  0.713000000      -2.09956327E-14
  0.713999987      -1.67226716E-14
  0.714999974      -1.24426353E-14
  0.716000021      -8.27070414E-15
  0.717000008      -4.31366606E-15
  0.717999995      -6.66345626E-16
  0.718999982       2.59151403E-15
  0.720000029       5.39781529E-15
  0.721000016       7.71003948E-15
  0.722000003       9.50649471E-15
  0.722999990       1.07868519E-14
  0.723999977       1.15719710E-14
  0.725000024       1.19030364E-14
  0.726000011       1.18400569E-14
  0.726999998       1.14597976E-14
  0.727999985       1.08532347E-14
  0.728999972       1.01226366E-14
  0.730000019       9.37839453E-15
  0.731000006       8.73571252E-15
  0.731999993       8.31128379E-15
  0.732999980       8.22007189E-15
  0.734000027       8.57230631E-15
  0.735000014       9.47078804E-15
  0.736000001       1.10085840E-14
  0.736999989       1.32671728E-14
  0.737999976       1.63150845E-14
  0.739000022       2.02070552E-14
  0.740000010       2.49836840E-14
  0.740999997       3.06715848E-14
  0.741999984       3.72839644E-14
  0.742999971       4.48216158E-14
  0.744000018       5.32742084E-14
  0.745000005       6.26217828E-14
  0.745999992       7.28364648E-14
  0.746999979       8.38841393E-14
  0.748000026       9.57261953E-14
  0.749000013       1.08321108E-13
  0.750000000       1.21625867E-13
  0.750999987       1.35597195E-13
  0.751999974       1.50192481E-13
  0.753000021       1.65370430E-13
  0.754000008       1.81091483E-13
  0.754999995       1.97317938E-13
  0.755999982       2.14013743E-13
  0.757000029       2.31144260E-13
  0.758000016       2.48675727E-13
  0.759000003       2.66574740E-13
  0.759999990       2.84807686E-13
  0.760999978       3.03340198E-13
  0.762000024       3.22136821E-13
  0.763000011       3.41160693E-13
  0.763999999       3.60373569E-13
  0.764999986       3.79736065E-13
  0.765999973       3.99208038E-13
  0.767000020       4.18749454E-13
  0.768000007       4.38321336E-13
  0.768999994       4.57886821E-13
  0.769999981       4.77412760E-13
  0.771000028       4.96870828E-13
  0.772000015       5.16239124E-13
  0.773000002       5.35503662E-13
  0.773999989       5.54659346E-13
  0.774999976       5.73711272E-13
  0.776000023       5.92675160E-13
  0.777000010       6.11577900E-13
  0.777999997       6.30457600E-13
  0.778999984       6.49362725E-13
  0.779999971       6.68351550E-13
  0.781000018       6.87490646E-13
  0.782000005       7.06852979E-13
  0.782999992       7.26515961E-13
  0.783999979       7.46558902E-13
  0.785000026       7.67060352E-13
  0.786000013       7.88095500E-13
  0.787000000       8.09733248E-13
  0.787999988       8.32033823E-13
  0.788999975       8.55046231E-13
  0.790000021       8.78806305E-13
  0.791000009       9.03335024E-13
  0.791999996       9.28637701E-13
  0.792999983       9.54703222E-13
  0.794000030       9.81504266E-13
  0.795000017       1.00899833E-12
  0.796000004       1.03712872E-12
  0.796999991       1.06582679E-12
  0.797999978       1.09501449E-12
  0.799000025       1.12460724E-12
  0.800000012       1.15451702E-12
  0.800999999       1.18465621E-12
  0.801999986       1.21494091E-12
  0.802999973       1.24529434E-12
  0.804000020       1.27565048E-12
  0.805000007       1.30595654E-12
  0.805999994       1.33617596E-12
  0.806999981       1.36628957E-12
  0.808000028       1.39629768E-12
  0.809000015       1.42622014E-12
  0.810000002       1.45609620E-12
  0.810999990       1.48598397E-12
  0.811999977       1.51595837E-12
  0.813000023       1.54610916E-12
  0.814000010       1.57653816E-12
  0.814999998       1.60735596E-12
  0.815999985       1.63867834E-12
  0.816999972       1.67062241E-12
  0.818000019       1.70330319E-12
  0.819000006       1.73682965E-12
  0.819999993       1.77130120E-12
  0.820999980       1.80680492E-12
  0.822000027       1.84341279E-12
  0.823000014       1.88117989E-12
  0.824000001       1.92014308E-12
  0.824999988       1.96032036E-12
  0.825999975       2.00171151E-12
  0.827000022       2.04429811E-12
  0.828000009       2.08804610E-12
  0.828999996       2.13290735E-12
  0.829999983       2.17882244E-12
  0.830999970       2.22572416E-12
  0.832000017       2.27354095E-12
  0.833000004       2.32219972E-12
  0.833999991       2.37163045E-12
  0.834999979       2.42176938E-12
  0.836000025       2.47256165E-12
  0.837000012       2.52396498E-12
  0.838000000       2.57595160E-12
  0.838999987       2.62851069E-12
  0.839999974       2.68164874E-12
  0.841000021       2.73539091E-12
  0.842000008       2.78978013E-12
  0.842999995       2.84487711E-12
  0.843999982       2.90075884E-12
  0.845000029       2.95751639E-12
  0.846000016       3.01525254E-12
  0.847000003       3.07407919E-12
  0.847999990       3.13411406E-12
  0.848999977       3.19547774E-12
  0.850000024       3.25829056E-12
  0.851000011       3.32266918E-12
  0.851999998       3.38872311E-12
  0.852999985       3.45655275E-12
  0.853999972       3.52624679E-12
  0.855000019       3.59787981E-12
  0.856000006       3.67151145E-12