   0.00000000       0.00000000    
   1.00000005E-03   0.00000000    
   2.00000009E-03   0.00000000    
   3.00000003E-03   0.00000000    
   4.00000019E-03   0.00000000    
   4.99999989E-03   0.00000000    
   6.00000005E-03   0.00000000    
   7.00000022E-03   0.00000000    
   8.00000038E-03   0.00000000    
   8.99999961E-03   0.00000000    
   9.99999978E-03   0.00000000    
   1.09999999E-02   4.26920308E-37
   1.20000001E-02   4.78344984E-36
   1.30000003E-02   3.07816856E-35
   1.40000004E-02   1.49789939E-34
   1.49999997E-02   6.10876955E-34
   1.60000008E-02   2.18669610E-33
   1.70000009E-02   7.08712303E-33
   1.79999992E-02   2.11084079E-32
   1.89999994E-02   5.83244797E-32
   1.99999996E-02   1.50772702E-31
   2.09999997E-02   3.67259724E-31
   2.19999999E-02   8.47679633E-31
   2.30000000E-02   1.86230203E-30
   2.40000002E-02   3.90923755E-30
   2.50000004E-02   7.86644581E-30
   2.60000005E-02   1.52158878E-29
   2.70000007E-02   2.83545638E-29
   2.80000009E-02   5.09960069E-29
   2.89999992E-02   8.86411303E-29
   2.99999993E-02   1.49052389E-28
   3.09999995E-02   2.42592278E-28
   3.20000015E-02   3.82178938E-28
   3.29999998E-02   5.82461593E-28
   3.40000018E-02   8.57626138E-28
   3.50000001E-02   1.21701295E-27
   3.59999985E-02   1.65748362E-27
   3.70000005E-02   2.15124815E-27
   3.79999988E-02   2.62771840E-27
   3.90000008E-02   2.94797205E-27
   3.99999991E-02   2.87070566E-27
   4.10000011E-02   2.00926609E-27
   4.19999994E-02  -2.19366887E-28
   4.30000015E-02  -4.65076259E-27
   4.39999998E-02  -1.24286284E-26
   4.50000018E-02  -2.50502257E-26
   4.60000001E-02  -4.43872803E-26
   4.69999984E-02  -7.26625758E-26
   4.80000004E-02  -1.12356522E-25
   4.89999987E-02  -1.66012474E-25
   5.00000007E-02  -2.35905107E-25
   5.09999990E-02  -3.23534389E-25
   5.20000011E-02  -4.28910182E-25
   5.29999994E-02  -5.49600231E-25
   5.40000014E-02  -6.79531292E-25
   5.49999997E-02  -8.07559374E-25
   5.60000017E-02  -9.15862383E-25
   5.70000000E-02  -9.78260098E-25
   5.79999983E-02  -9.58628702E-25
   5.90000004E-02  -8.09651532E-25
   5.99999987E-02  -4.72228112E-25
   6.10000007E-02   1.24054368E-25
   6.19999990E-02   1.05890988E-24
   6.30000010E-02   2.41727314E-24
   6.40000030E-02   4.28260240E-24
   6.49999976E-02   6.72705397E-24
   6.59999996E-02   9.79812260E-24
   6.70000017E-02   1.35015469E-23
   6.80000037E-02   1.77805619E-23
   6.89999983E-02   2.24920337E-23
   7.00000003E-02   2.73805227E-23
   7.10000023E-02   3.20520055E-23
   7.19999969E-02   3.59497104E-23
   7.29999989E-02   3.83353710E-23
   7.40000010E-02   3.82799519E-23
   7.50000030E-02   3.46686445E-23
   7.59999976E-02   2.62254694E-23
   7.69999996E-02   1.15630293E-23
   7.80000016E-02  -1.07372584E-23
   7.90000036E-02  -4.20098851E-23
   7.99999982E-02  -8.33518763E-23
   8.10000002E-02  -1.35430630E-22
   8.20000023E-02  -1.98255374E-22
   8.29999968E-02  -2.70918816E-22
   8.39999989E-02  -3.51320605E-22
   8.50000009E-02  -4.35889852E-22
   8.60000029E-02  -5.19329878E-22
   8.69999975E-02  -5.94414896E-22
   8.79999995E-02  -6.51873758E-22
   8.90000015E-02  -6.80400381E-22
   9.00000036E-02  -6.66833690E-22
   9.09999982E-02  -5.96549794E-22
   9.20000002E-02  -4.54105647E-22
   9.30000022E-02  -2.24166022E-22
   9.39999968E-02   1.07266491E-22
   9.49999988E-02   5.51317595E-22
   9.60000008E-02   1.11442534E-21
   9.70000029E-02   1.79629257E-21
   9.79999974E-02   2.58769379E-21
   9.89999995E-02   3.46825603E-21
  0.100000001       4.40437406E-21
  0.101000004       5.34745851E-21
  0.101999998       6.23274614E-21
  0.103000000       6.97892444E-21
  0.104000002       7.48884817E-21
  0.104999997       7.65160242E-21
  0.105999999       7.34616032E-21
  0.107000001       6.44683082E-21
  0.108000003       4.83061563E-21
  0.108999997       2.38648958E-21
  0.109999999      -9.73510600E-22
  0.111000001      -5.30165823E-21
  0.112000003      -1.06008309E-20
  0.112999998      -1.68103683E-20
  0.114000000      -2.37923543E-20
  0.115000002      -3.13193521E-20
  0.115999997      -3.90648193E-20
  0.116999999      -4.65975137E-20
  0.118000001      -5.33813221E-20
  0.119000003      -5.87818971E-20
  0.119999997      -6.20813784E-20
  0.120999999      -6.25022711E-20
  0.122000001      -5.92412085E-20
  0.123000003      -5.15128697E-20
  0.123999998      -3.86036726E-20
  0.125000000      -1.99341965E-20
  0.126000002       4.87151947E-21
  0.127000004       3.59125504E-20
  0.128000006       7.29371933E-20
  0.128999993       1.15273060E-19
  0.129999995       1.61766465E-19
  0.130999997       2.10736927E-19
  0.131999999       2.59953088E-19
  0.133000001       3.06636215E-19
  0.134000003       3.47497335E-19
  0.135000005       3.78813229E-19
  0.136000007       3.96545009E-19
  0.136999995       3.96501660E-19
  0.137999997       3.74548415E-19
  0.138999999       3.26857136E-19
  0.140000001       2.50192977E-19
  0.141000003       1.42227890E-19
  0.142000005       1.86847176E-21
  0.143000007      -1.70418102E-19
  0.143999994      -3.72299208E-19
  0.144999996      -5.99314739E-19
  0.145999998      -8.44681945E-19
  0.147000000      -1.09919058E-18
  0.148000002      -1.35121349E-18
  0.149000004      -1.58685346E-18
  0.150000006      -1.79024508E-18
  0.150999993      -1.94402457E-18
  0.151999995      -2.02997257E-18
  0.152999997      -2.02982781E-18
  0.153999999      -1.92625859E-18
  0.155000001      -1.70396673E-18
  0.156000003      -1.35088830E-18
  0.157000005      -8.59444172E-19
  0.158000007      -2.27780208E-19
  0.158999994       5.39072468E-19
  0.159999996       1.42819288E-18
  0.160999998       2.41800299E-18
  0.162000000       3.47782133E-18
  0.163000003       4.56781625E-18
  0.164000005       5.63942832E-18
  0.165000007       6.63632447E-18
  0.165999994       7.49591567E-18
  0.166999996       8.15145962E-18
  0.167999998       8.53472879E-18
  0.169000000       8.57920381E-18
  0.170000002       8.22370723E-18
  0.171000004       7.41635910E-18
  0.172000006       6.11870504E-18
  0.172999993       4.30983019E-18
  0.173999995       1.99024370E-18
  0.174999997      -8.14697527E-19
  0.175999999      -4.05207699E-18
  0.177000001      -7.63965733E-18
  0.178000003      -1.14653131E-17
  0.179000005      -1.53878590E-17
  0.180000007      -1.92394352E-17
  0.180999994      -2.28295794E-17
  0.181999996      -2.59510000E-17
  0.182999998      -2.83870321E-17
  0.184000000      -2.99206415E-17
  0.185000002      -3.03447436E-17
  0.186000004      -2.94735139E-17
  0.187000006      -2.71542765E-17
  0.187999994      -2.32794631E-17
  0.188999996      -1.77980631E-17
  0.189999998      -1.07259443E-17
  0.191000000      -2.15437867E-18
  0.192000002       7.74388374E-18
  0.193000004       1.87115931E-17
  0.194000006       3.04075928E-17
  0.194999993       4.24114691E-17
  0.195999995       5.42325219E-17
  0.196999997       6.53232338E-17
  0.197999999       7.50971007E-17
  0.199000001       8.29505586E-17
  0.200000003       8.82884278E-17
  0.201000005       9.05521499E-17
  0.202000007       8.92497705E-17
  0.202999994       8.39864732E-17
  0.203999996       7.44943110E-17
  0.204999998       6.06595895E-17
  0.206000000       4.25464087E-17
  0.207000002       2.04148109E-17
  0.208000004      -5.26800892E-18
  0.209000006      -3.38246395E-17
  0.209999993      -6.43736371E-17
  0.210999995      -9.58456492E-17
  0.211999997      -1.27009891E-16
  0.213000000      -1.56510791E-16
  0.214000002      -1.82914277E-16
  0.215000004      -2.04762526E-16
  0.216000006      -2.20635539E-16
  0.216999993      -2.29217571E-16
  0.217999995      -2.29365696E-16
  0.218999997      -2.20177678E-16
  0.219999999      -2.01056028E-16
  0.221000001      -1.71764862E-16
  0.222000003      -1.32476337E-16
  0.223000005      -8.38035869E-17
  0.224000007      -2.68173113E-17
  0.224999994       3.69562559E-17
  0.225999996       1.05557597E-16
  0.226999998       1.76637313E-16
  0.228000000       2.47520603E-16
  0.229000002       3.15291895E-16
  0.230000004       3.76897527E-16
  0.231000006       4.29263592E-16
  0.231999993       4.69424971E-16
  0.232999995       4.94660941E-16
  0.233999997       5.02631416E-16
  0.234999999       4.91508497E-16
  0.236000001       4.60096650E-16
  0.237000003       4.07935567E-16
  0.238000005       3.35379704E-16
  0.238999993       2.43649001E-16
  0.239999995       1.34846666E-16
  0.240999997       1.19405308E-17
  0.241999999      -1.21294006E-16
  0.243000001      -2.60369749E-16
  0.244000003      -4.00220738E-16
  0.245000005      -5.35369610E-16
  0.246000007      -6.60124275E-16
  0.246999994      -7.68797808E-16
  0.247999996      -8.55943204E-16
  0.248999998      -9.16594046E-16
  0.250000000      -9.46501297E-16
  0.250999987      -9.42355494E-16
  0.252000004      -9.01984210E-16
  0.252999991      -8.24514523E-16
  0.254000008      -7.10491395E-16
  0.254999995      -5.61944739E-16
  0.256000012      -3.82398636E-16
  0.256999999      -1.76819623E-16
  0.257999986       4.84978243E-17
  0.259000003       2.86106818E-16
  0.259999990       5.27640593E-16
  0.261000007       7.64095187E-16
  0.261999995       9.86153344E-16
  0.263000011       1.18453799E-15
  0.263999999       1.35038132E-15
  0.264999986       1.47559619E-15
  0.266000003       1.55323364E-15
  0.266999990       1.57781158E-15
  0.268000007       1.54559923E-15
  0.268999994       1.45484452E-15
  0.270000011       1.30593253E-15
  0.270999998       1.10146587E-15
  0.272000015       8.46261088E-16
  0.273000002       5.47257876E-16
  0.273999989       2.13341871E-16
  0.275000006      -1.44914473E-16
  0.275999993      -5.15585037E-16
  0.277000010      -8.85786716E-16
  0.277999997      -1.24212490E-15
  0.279000014      -1.57117200E-15
  0.280000001      -1.85996111E-15
  0.280999988      -2.09647600E-15
  0.282000005      -2.27011776E-15
  0.282999992      -2.37213165E-15
  0.284000009      -2.39597436E-15
  0.284999996      -2.33761103E-15
  0.286000013      -2.19572645E-15
  0.287000000      -1.97184400E-15
  0.287999988      -1.67034664E-15
  0.289000005      -1.29839891E-15
  0.289999992      -8.65772704E-16
  0.291000009      -3.84582287E-16
  0.291999996       1.31061461E-16
  0.293000013       6.65465718E-16
  0.294000000       1.20182477E-15
  0.294999987       1.72272801E-15
  0.296000004       2.21068971E-15
  0.296999991       2.64868473E-15
  0.298000008       3.02067301E-15
  0.298999995       3.31209894E-15
  0.300000012       3.51035081E-15
  0.300999999       3.60517043E-15
  0.301999986       3.58900481E-15
  0.303000003       3.45728801E-15
  0.303999990       3.20865419E-15
  0.305000007       2.84507525E-15
  0.305999994       2.37192349E-15
  0.307000011       1.79795809E-15
  0.307999998       1.13523517E-15
  0.308999985       3.98945424E-16
  0.310000002      -3.92822144E-16
  0.310999990      -1.21938905E-15
  0.312000006      -2.05786782E-15
  0.312999994      -2.88361207E-15
  0.314000010      -3.67073756E-15
  0.314999998      -4.39271244E-15
  0.316000015      -5.02301210E-15
  0.317000002      -5.53583550E-15
  0.317999989      -5.90687616E-15
  0.319000006      -6.11413708E-15
  0.319999993      -6.13877472E-15
  0.321000010      -5.96595332E-15
  0.321999997      -5.58568338E-15
  0.323000014      -4.99361752E-15
  0.324000001      -4.19177081E-15
  0.324999988      -3.18912394E-15
  0.326000005      -2.00207333E-15
  0.326999992      -6.54685053E-16
  0.328000009       8.21288545E-16
  0.328999996       2.38666271E-15
  0.330000013       3.99537987E-15
  0.331000000       5.59539504E-15
  0.331999987       7.12989983E-15
  0.333000004       8.53887900E-15
  0.333999991       9.76098661E-15
  0.335000008       1.07357030E-14
  0.335999995       1.14057188E-14
  0.337000012       1.17194759E-14
  0.338000000       1.16337765E-14
  0.338999987       1.11163554E-14
  0.340000004       1.01482992E-14
  0.340999991       8.72618933E-15
  0.342000008       6.86384594E-15
  0.342999995       4.59354395E-15
  0.344000012       1.96658583E-15
  0.344999999      -9.46861286E-16
  0.345999986      -4.05874302E-15
  0.347000003      -7.26495670E-15
  0.347999990      -1.04480608E-14
  0.349000007      -1.34808343E-14
  0.349999994      -1.62306116E-14
  0.351000011      -1.85642839E-14
  0.351999998      -2.03538121E-14
  0.352999985      -2.14820583E-14
  0.354000002      -2.18487083E-14
  0.354999989      -2.13760318E-14
  0.356000006      -2.00142027E-14
  0.356999993      -1.77459095E-14
  0.358000010      -1.45899765E-14
  0.358999997      -1.06037420E-14
  0.360000014      -5.88398128E-15
  0.361000001      -5.66194727E-16
  0.361999989       5.17785650E-15
  0.363000005       1.11444074E-14
  0.363999993       1.71036958E-14
  0.365000010       2.28076310E-14
  0.365999997       2.79988977E-14
  0.367000014       3.24212228E-14
  0.368000001       3.58304457E-14
  0.368999988       3.80059685E-14
  0.370000005       3.87621013E-14
  0.370999992       3.79587922E-14
  0.372000009       3.55112227E-14
  0.372999996       3.13977495E-14
  0.374000013       2.56657149E-14
  0.375000000       1.84346946E-14
  0.375999987       9.89684815E-15
  0.377000004       3.14142074E-16
  0.377999991      -9.98767550E-15
  0.379000008      -2.06283117E-14
  0.379999995      -3.11852188E-14
  0.381000012      -4.12086137E-14
  0.381999999      -5.02387438E-14
  0.382999986      -5.78248387E-14
  0.384000003      -6.35449877E-14
  0.384999990      -6.70261982E-14
  0.386000007      -6.79636740E-14
  0.386999995      -6.61385077E-14
  0.388000011      -6.14328873E-14
  0.388999999      -5.38419407E-14
  0.389999986      -4.34815216E-14
  0.391000003      -3.05913335E-14
  0.391999990      -1.55329342E-14
  0.393000007       1.21758699E-15
  0.393999994       1.90823225E-14
  0.395000011       3.73993913E-14
  0.395999998       5.54454723E-14
  0.397000015       7.24623405E-14
  0.398000002       8.76865244E-14
  0.398999989       1.00380946E-13
  0.400000006       1.09867309E-13
  0.400999993       1.15557940E-13
  0.402000010       1.16985604E-13
  0.402999997       1.13829952E-13
  0.404000014       1.05939278E-13
  0.405000001       9.33464189E-14
  0.405999988       7.62776954E-14
  0.407000005       5.51542861E-14
  0.407999992       3.05855059E-14
  0.409000009       3.35383119E-15
  0.409999996      -2.56080608E-14
  0.411000013      -5.52477172E-14
  0.412000000      -8.44298251E-14
  0.412999988      -1.11978433E-13
  0.414000005      -1.36722935E-13
  0.414999992      -1.57545987E-13
  0.416000009      -1.73431568E-13
  0.416999996      -1.83511043E-13
  0.418000013      -1.87105228E-13
  0.419000000      -1.83760572E-13
  0.419999987      -1.73277679E-13
  0.421000004      -1.55730545E-13
  0.421999991      -1.31475383E-13
  0.423000008      -1.01148372E-13
  0.423999995      -6.56516535E-14
  0.425000012      -2.61280323E-14
  0.425999999       1.60752047E-14
  0.426999986       5.94522329E-14
  0.428000003       1.02392792E-13
  0.428999990       1.43242541E-13
  0.430000007       1.80367386E-13
  0.430999994       2.12219307E-13
  0.432000011       2.37400865E-13
  0.432999998       2.54725819E-13
  0.433999985       2.63273181E-13
  0.435000002       2.62432247E-13
  0.435999990       2.51936493E-13
  0.437000006       2.31884526E-13
  0.437999994       2.02746972E-13
  0.439000010       1.65358531E-13
  0.439999998       1.20895156E-13
  0.441000015       7.08368233E-14
  0.442000002       1.69170860E-14
  0.442999989      -3.89387754E-14
  0.444000006      -9.46849139E-14
  0.444999993      -1.48232609E-13
  0.446000010      -1.97531349E-13
  0.446999997      -2.40650300E-13
  0.448000014      -2.75856595E-13
  0.449000001      -3.01687250E-13
  0.449999988      -3.17011852E-13
  0.451000005      -3.21082787E-13
  0.451999992      -3.13571245E-13
  0.453000009      -2.94587054E-13
  0.453999996      -2.64681126E-13
  0.455000013      -2.24830354E-13
  0.456000000      -1.76405277E-13
  0.456999987      -1.21121483E-13
  0.458000004      -6.09766008E-14
  0.458999991       1.82483762E-15
  0.460000008       6.49555550E-14
  0.460999995       1.26055511E-13
  0.462000012       1.82824201E-13
  0.463000000       2.33111246E-13
  0.463999987       2.75001755E-13
  0.465000004       3.06892993E-13
  0.465999991       3.27558971E-13
  0.467000008       3.36200360E-13
  0.467999995       3.32477616E-13
  0.469000012       3.16525885E-13
  0.469999999       2.88950965E-13
  0.470999986       2.50806374E-13
  0.472000003       2.03552602E-13
  0.472999990       1.48999980E-13
  0.474000007       8.92374689E-14
  0.474999994       2.65505154E-14
  0.476000011      -3.66690050E-14
  0.476999998      -9.80168569E-14
  0.477999985      -1.55170744E-13
  0.479000002      -2.05981066E-13
  0.479999989      -2.48554351E-13
  0.481000006      -2.81326123E-13
  0.481999993      -3.03120213E-13
  0.483000010      -3.13192316E-13
  0.483999997      -3.11255931E-13
  0.485000014      -2.97489952E-13
  0.486000001      -2.72527769E-13
  0.486999989      -2.37428431E-13
  0.488000005      -1.93631244E-13
  0.488999993      -1.42895854E-13
  0.490000010      -8.72304751E-14
  0.490999997      -2.88111006E-14
  0.492000014       3.01046487E-14
  0.493000001       8.72655897E-14
  0.493999988       1.40513496E-13
  0.495000005       1.87864522E-13
  0.495999992       2.27582411E-13
  0.497000009       2.58240749E-13
  0.497999996       2.78772150E-13
  0.499000013       2.88502403E-13
  0.500000000       2.87168808E-13
  0.500999987       2.74922554E-13
  0.501999974       2.52315096E-13
  0.503000021       2.20269820E-13
  0.504000008       1.80040390E-13
  0.504999995       1.33157808E-13
  0.505999982       8.13688445E-14
  0.507000029       2.65681540E-14
  0.508000016      -2.92728725E-14
  0.509000003      -8.41776125E-14
  0.509999990      -1.36233581E-13
  0.510999978      -1.83657018E-13
  0.512000024      -2.24850439E-13
  0.513000011      -2.58451436E-13
  0.513999999      -2.83371390E-13
  0.514999986      -2.98823222E-13
  0.515999973      -3.04337745E-13
  0.517000020      -2.99768755E-13
  0.518000007      -2.85287364E-13
  0.518999994      -2.61366531E-13
  0.519999981      -2.28756955E-13
  0.521000028      -1.88455778E-13
  0.522000015      -1.41669608E-13
  0.523000002      -8.97737356E-14
  0.523999989      -3.42690320E-14
  0.524999976       2.32622217E-14
  0.526000023       8.11997361E-14
  0.527000010       1.37927037E-13
  0.527999997       1.91870771E-13
  0.528999984       2.41536608E-13
  0.529999971       2.85541474E-13
  0.531000018       3.22642060E-13
  0.532000005       3.51759203E-13
  0.532999992       3.71998602E-13
  0.533999979       3.82667883E-13
  0.535000026       3.83290323E-13
  0.536000013       3.73615364E-13
  0.537000000       3.53626172E-13
  0.537999988       3.23544278E-13
  0.538999975       2.83831064E-13
  0.540000021       2.35186165E-13
  0.541000009       1.78542389E-13
  0.541999996       1.15056388E-13
  0.542999983       4.60950756E-14
  0.544000030      -2.67831276E-14
  0.545000017      -1.01852493E-13
  0.546000004      -1.77249965E-13
  0.546999991      -2.51011343E-13
  0.547999978      -3.21113416E-13
  0.549000025      -3.85521882E-13
  0.550000012      -4.42244277E-13
  0.550999999      -4.89387014E-13
  0.551999986      -5.25215071E-13
  0.552999973      -5.48212842E-13
  0.554000020      -5.57143578E-13
  0.555000007      -5.51106036E-13
  0.555999994      -5.29585056E-13
  0.556999981      -4.92494066E-13
  0.558000028      -4.40207034E-13
  0.559000015      -3.73577552E-13
  0.560000002      -2.93942957E-13
  0.560999990      -2.03112389E-13
  0.561999977      -1.03337355E-13
  0.563000023       2.73528962E-15
  0.564000010       1.12127674E-13
  0.564999998       2.21611602E-13
  0.565999985       3.27803323E-13
  0.566999972       4.27270334E-13
  0.568000019       5.16646567E-13
  0.569000006       5.92752247E-13
  0.569999993       6.52714211E-13
  0.570999980       6.94081836E-13
  0.572000027       7.14933971E-13
  0.573000014       7.13972447E-13
  0.574000001       6.90597319E-13
  0.574999988       6.44960214E-13
  0.575999975       5.77992352E-13
  0.577000022       4.91405148E-13
  0.578000009       3.87661366E-13
  0.578999996       2.69917172E-13
  0.579999983       1.41935156E-13
  0.580999970       7.97072911E-15
  0.582000017      -1.27364943E-13
  0.583000004      -2.59261444E-13
  0.583999991      -3.82879926E-13
  0.584999979      -4.93532136E-13
  0.586000025      -5.86860963E-13
  0.587000012      -6.59016136E-13
  0.588000000      -7.06817634E-13
  0.588999987      -7.27900108E-13
  0.589999974      -7.20832140E-13
  0.591000021      -6.85204552E-13
  0.592000008      -6.21683531E-13
  0.592999995      -5.32024782E-13
  0.593999982      -4.19046715E-13
  0.595000029      -2.86562495E-13
  0.596000016      -1.39271732E-13
  0.597000003       1.73857239E-14
  0.597999990       1.77409519E-13
  0.598999977       3.34446446E-13
  0.600000024       4.82019210E-13
  0.601000011       6.13768259E-13
  0.601999998       7.23698445E-13
  0.602999985       8.06421119E-13
  0.603999972       8.57382362E-13
  0.605000019       8.73068328E-13
  0.606000006       8.51179262E-13
  0.606999993       7.90764806E-13
  0.607999980       6.92313882E-13
  0.609000027       5.57794100E-13
  0.610000014       3.90637880E-13
  0.611000001       1.95673935E-13
  0.611999989      -2.09958258E-14
  0.612999976      -2.52170680E-13
  0.614000022      -4.89772556E-13
  0.615000010      -7.25108016E-13
  0.615999997      -9.49162515E-13
  0.616999984      -1.15291728E-12
  0.617999971      -1.32767831E-12
  0.619000018      -1.46540570E-12
  0.620000005      -1.55903187E-12
  0.620999992      -1.60275580E-12
  0.621999979      -1.59230322E-12
  0.623000026      -1.52514123E-12
  0.624000013      -1.40063807E-12
  0.625000000      -1.22016102E-12
  0.625999987      -9.87106447E-13
  0.626999974      -7.06858617E-13
  0.628000021      -3.86676341E-13
  0.629000008      -3.55092203E-14
  0.629999995       3.36252781E-13
  0.630999982       7.17089365E-13
  0.632000029       1.09471059E-12
  0.633000016       1.45645735E-12
  0.634000003       1.78972809E-12
  0.634999990       2.08241866E-12
  0.635999978       2.32335852E-12
  0.637000024       2.50272979E-12
  0.638000011       2.61245127E-12
  0.638999999       2.64651452E-12
  0.639999986       2.60125775E-12
  0.640999973       2.47556598E-12
  0.642000020       2.27098852E-12
  0.643000007       1.99176504E-12
  0.643999994       1.64475866E-12
  0.644999981       1.23929534E-12
  0.646000028       7.86910576E-13
  0.647000015       3.01011115E-13
  0.648000002      -2.03538439E-13
  0.648999989      -7.10893041E-13
  0.649999976      -1.20475234E-12
  0.651000023      -1.66891620E-12
  0.652000010      -2.08785159E-12
  0.652999997      -2.44725074E-12
  0.653999984      -2.73456041E-12
  0.654999971      -2.93946182E-12
  0.656000018      -3.05428274E-12
  0.657000005      -3.07432400E-12
  0.657999992      -2.99808811E-12
  0.658999979      -2.82739739E-12
  0.660000026      -2.56739421E-12
  0.661000013      -2.22642130E-12
  0.662000000      -1.81578298E-12
  0.662999988      -1.34939293E-12
  0.663999975      -8.43318633E-13
  0.665000021      -3.15236688E-13
  0.666000009       2.16182622E-13
  0.666999996       7.31940441E-13
  0.667999983       1.21340047E-12
  0.669000030       1.64298100E-12
  0.670000017       2.00482231E-12
  0.671000004       2.28540234E-12
  0.671999991       2.47407823E-12
  0.672999978       2.56352990E-12
  0.674000025       2.55008796E-12
  0.675000012       2.43393001E-12
  0.675999999       2.21913547E-12
  0.676999986       1.91359407E-12
  0.677999973       1.52876800E-12
  0.679000020       1.07931394E-12
  0.680000007       5.82576576E-13
  0.680999994       5.79704741E-14
  0.681999981      -4.73728153E-13
  0.683000028      -9.91154424E-13
  0.684000015      -1.47316382E-12
  0.685000002      -1.89964711E-12
  0.685999990      -2.25231856E-12
  0.686999977      -2.51544814E-12
  0.688000023      -2.67650789E-12
  0.689000010      -2.72670493E-12
  0.689999998      -2.66137958E-12
  0.690999985      -2.48025038E-12
  0.691999972      -2.18749411E-12
  0.693000019      -1.79165569E-12
  0.694000006      -1.30538766E-12
  0.694999993      -7.45027412E-13
  0.695999980      -1.30027174E-13
  0.697000027       5.17744701E-13
  0.698000014       1.17480483E-12
  0.699000001       1.81692736E-12
  0.699999988       2.42005699E-12
  0.700999975       2.96122588E-12
  0.702000022       3.41943813E-12
  0.703000009       3.77648780E-12
  0.703999996       4.01767768E-12
  0.704999983       4.13241099E-12
  0.705999970       4.11462704E-12
  0.707000017       3.96306815E-12
  0.708000004       3.68136294E-12
  0.708999991       3.27792047E-12
  0.709999979       2.76564101E-12
  0.711000025       2.16145157E-12
  0.712000012       1.48568235E-12
  0.713000000       7.61311045E-13
  0.713999987       1.31016888E-14
  0.714999974      -7.33328871E-13
  0.716000021      -1.45247800E-12
  0.717000008      -2.11992229E-12
  0.717999995      -2.71324131E-12
  0.718999982      -3.21286270E-12
  0.720000029      -3.60279710E-12
  0.721000016      -3.87123276E-12
  0.722000003      -4.01096647E-12
  0.722999990      -4.01965267E-12
  0.723999977      -3.89986394E-12
  0.725000024      -3.65895812E-12
  0.726000011      -3.30875952E-12
  0.726999998      -2.86506561E-12
  0.727999985      -2.34700215E-12
  0.728999972      -1.77625070E-12
  0.730000019      -1.17618133E-12
  0.731000006      -5.70924655E-13
  0.731999993       1.55783589E-14
  0.732999980       5.60510839E-13
  0.734000027       1.04306212E-12
  0.735000014       1.44522111E-12
  0.736000001       1.75245062E-12
  0.736999989       1.95421609E-12
  0.737999976       2.04434776E-12
  0.739000022       2.02122563E-12
  0.740000010       1.88777791E-12
  0.740999997       1.65129607E-12
  0.741999984       1.32307587E-12
  0.742999971       9.17900738E-13
  0.744000018       4.53388737E-13
  0.745000005      -5.07684444E-14
  0.745999992      -5.73642804E-13
  0.746999979      -1.09394937E-12
  0.748000026      -1.59093062E-12
  0.749000013      -2.04521187E-12
  0.750000000      -2.43959128E-12
  0.750999987      -2.75973515E-12
  0.751999974      -2.99475028E-12
  0.753000021      -3.13761322E-12
  0.754000008      -3.18543889E-12
  0.754999995      -3.13958039E-12
  0.755999982      -3.00555891E-12
  0.757000029      -2.79282608E-12
  0.758000016      -2.51437348E-12
  0.759000003      -2.18620369E-12
  0.759999990      -1.82668594E-12
  0.760999978      -1.45582461E-12
  0.762000024      -1.09447108E-12
  0.763000011      -7.63506771E-13
  0.763999999      -4.83031638E-13
  0.764999986      -2.71592021E-13
  0.765999973      -1.45472691E-13
  0.767000020      -1.18082288E-13
  0.768000007      -1.99452705E-13
  0.768999994      -3.95870782E-13
  0.769999981      -7.09653256E-13
  0.771000028      -1.13906952E-12
  0.772000015      -1.67841685E-12
  0.773000002      -2.31823783E-12
  0.773999989      -3.04566919E-12
  0.774999976      -3.84490963E-12
  0.776000023      -4.69778556E-12
  0.777000010      -5.58439059E-12
  0.777999997      -6.48377576E-12
  0.778999984      -7.37466165E-12
  0.779999971      -8.23615048E-12
  0.781000018      -9.04840612E-12
  0.782000005      -9.79329118E-12
  0.782999992      -1.04549234E-11
  0.783999979      -1.10201475E-11
  0.785000026      -1.14789012E-11
  0.786000013      -1.18244702E-11
  0.787000000      -1.20536272E-11
  0.787999988      -1.21666496E-11
  0.788999975      -1.21672238E-11
  0.790000021      -1.20622366E-11
  0.791000009      -1.18614788E-11
  0.791999996      -1.15772591E-11
  0.792999983      -1.12239497E-11
  0.794000030      -1.08174893E-11
  0.795000017      -1.03748494E-11
  0.796000004      -9.91348583E-12
  0.796999991      -9.45080125E-12
  0.797999978      -9.00362597E-12
  0.799000025      -8.58773729E-12
  0.800000012      -8.21743194E-12
  0.800999999      -7.90516437E-12
  0.801999986      -7.66125271E-12
  0.802999973      -7.49366194E-12
  0.804000020      -7.40787293E-12
  0.805000007      -7.40682776E-12
  0.805999994      -7.49095837E-12
  0.806999981      -7.65829154E-12
  0.808000028      -7.90462140E-12
  0.809000015      -8.22374027E-12
  0.810000002      -8.60773432E-12
  0.810999990      -9.04730544E-12
  0.811999977      -9.53212249E-12
  0.813000023      -1.00512090E-11
  0.814000010      -1.05933248E-11
  0.814999998      -1.11473426E-11
  0.815999985      -1.17026172E-11
  0.816999972      -1.22493170E-11
  0.818000019      -1.27787329E-11
  0.819000006      -1.32835401E-11
  0.819999993      -1.37580121E-11
  0.820999980      -1.41981730E-11
  0.822000027      -1.46018996E-11
  0.823000014      -1.49689636E-11
  0.824000001      -1.53010105E-11
  0.824999988      -1.56014836E-11
  0.825999975      -1.58754832E-11
  0.827000022      -1.61295803E-11
  0.828000009      -1.63715777E-11
  0.828999996      -1.66102306E-11
  0.829999983      -1.68549480E-11
  0.830999970      -1.71154532E-11
  0.832000017      -1.74014362E-11
  0.833000004      -1.77222091E-11
  0.833999991      -1.80863623E-11
  0.834999979      -1.85014434E-11
  0.836000025      -1.89736594E-11
  0.837000012      -1.95076160E-11
  0.838000000      -2.01061060E-11
  0.838999987      -2.07699535E-11
  0.839999974      -2.14979094E-11
  0.841000021      -2.22866153E-11
  0.842000008      -2.31306294E-11
  0.842999995      -2.40225253E-11
  0.843999982      -2.49530552E-11
  0.845000029      -2.59113668E-11
  0.846000016      -2.68852909E-11
  0.847000003      -2.78616696E-11
  0.847999990      -2.88267153E-11
  0.848999977      -2.97664150E-11
  0.850000024      -3.06669551E-11
  0.851000011      -3.15151343E-11
  0.851999998      -3.22987886E-11
  0.852999985      -3.30071942E-11
  0.853999972      -3.36314275E-11
  0.855000019      -3.41646815E-11
  0.856000006      -3.46025535E-11