   0.00000000       0.00000000    
   1.00000005E-03   0.00000000    
   2.00000009E-03   0.00000000    
   3.00000003E-03   0.00000000    
   4.00000019E-03   0.00000000    
   4.99999989E-03   0.00000000    
   6.00000005E-03   0.00000000    
   7.00000022E-03   0.00000000    
   8.00000038E-03   0.00000000    
   8.99999961E-03   0.00000000    
   9.99999978E-03   0.00000000    
   1.09999999E-02   0.00000000    
   1.20000001E-02   0.00000000    
   1.30000003E-02   0.00000000    
   1.40000004E-02   0.00000000    
   1.49999997E-02   0.00000000    
   1.60000008E-02   0.00000000    
   1.70000009E-02   0.00000000    
   1.79999992E-02   0.00000000    
   1.89999994E-02   0.00000000    
   1.99999996E-02   0.00000000    
   2.09999997E-02   0.00000000    
   2.19999999E-02   1.62601671E-38
   2.30000000E-02   4.44639402E-38
   2.40000002E-02   8.80537728E-38
   2.50000004E-02   1.51439379E-37
   2.60000005E-02   2.32614245E-37
   2.70000007E-02   2.81944614E-37
   2.80000009E-02   1.59902818E-37
   2.89999992E-02  -4.25027097E-37
   2.99999993E-02  -2.04244206E-36
   3.09999995E-02  -5.71676681E-36
   3.20000015E-02  -1.31490494E-35
   3.29999998E-02  -2.69872323E-35
   3.40000018E-02  -5.10626423E-35
   3.50000001E-02  -9.04857727E-35
   3.59999985E-02  -1.51531163E-34
   3.70000005E-02  -2.40779883E-34
   3.79999988E-02  -3.62977572E-34
   3.90000008E-02  -5.17101342E-34
   3.99999991E-02  -6.89782105E-34
   4.10000011E-02  -8.45025328E-34
   4.19999994E-02  -9.09223942E-34
   4.30000015E-02  -7.50602734E-34
   4.39999998E-02  -1.52957667E-34
   4.50000018E-02   1.21571316E-33
   4.60000001E-02   3.83744172E-33
   4.69999984E-02   8.37676303E-33
   4.80000004E-02   1.57038493E-32
   4.89999987E-02   2.68970769E-32
   5.00000007E-02   4.32096295E-32
   5.09999990E-02   6.59805626E-32
   5.20000011E-02   9.64675023E-32
   5.29999994E-02   1.35576417E-31
   5.40000014E-02   1.83465622E-31
   5.49999997E-02   2.39007318E-31
   5.60000017E-02   2.99103080E-31
   5.70000000E-02   3.57870509E-31
   5.79999983E-02   4.05749476E-31
   5.90000004E-02   4.28616744E-31
   5.99999987E-02   4.07049573E-31
   6.10000007E-02   3.15935994E-31
   6.19999990E-02   1.24691692E-31
   6.30000010E-02  -2.01600220E-31
   6.40000030E-02  -6.99767602E-31
   6.49999976E-02  -1.40447190E-30
   6.59999996E-02  -2.34213093E-30
   6.70000017E-02  -3.52258568E-30
   6.80000037E-02  -4.92842840E-30
   6.89999983E-02  -6.50216895E-30
   7.00000003E-02  -8.13178780E-30
   7.10000023E-02  -9.63570662E-30
   7.19999969E-02  -1.07487798E-29
   7.29999989E-02  -1.11115558E-29
   7.40000010E-02  -1.02657438E-29
   7.50000030E-02  -7.65943618E-30
   7.59999976E-02  -2.66614043E-30
   7.69999996E-02   5.37809655E-30
   7.80000016E-02   1.71153407E-29
   7.90000036E-02   3.30807658E-29
   7.99999982E-02   5.35899276E-29
   8.10000002E-02   7.85984348E-29
   8.20000023E-02   1.07537260E-28
   8.29999968E-02   1.39130876E-28
   8.39999989E-02   1.71210381E-28
   8.50000009E-02   2.00539165E-28
   8.60000029E-02   2.22674841E-28
   8.69999975E-02   2.31896626E-28
   8.79999995E-02   2.21232873E-28
   8.90000015E-02   1.82626379E-28
   9.00000036E-02   1.07276814E-28
   9.09999982E-02  -1.38031550E-29
   9.20000002E-02  -1.88988424E-28
   9.30000022E-02  -4.24980998E-28
   9.39999968E-02  -7.25489143E-28
   9.49999988E-02  -1.08967229E-27
   9.60000008E-02  -1.51040825E-27
   9.70000029E-02  -1.97247620E-27
   9.79999974E-02  -2.45079111E-27
   9.89999995E-02  -2.90886700E-27
  0.100000001      -3.29772747E-27
  0.101000004      -3.55552013E-27
  0.101999998      -3.60811304E-27
  0.103000000      -3.37096289E-27
  0.104000002      -2.75253099E-27
  0.104999997      -1.65948158E-27
  0.105999999      -3.82388576E-30
  0.107000001       2.28795316E-27
  0.108000003       5.26385003E-27
  0.108999997       8.93371263E-27
  0.109999999       1.32554856E-26
  0.111000001       1.81210918E-26
  0.112000003       2.33429673E-26
  0.112999998       2.86424794E-26
  0.114000000       3.36417159E-26
  0.115000002       3.78602945E-26
  0.115999997       4.07189322E-26
  0.116999999       4.15515010E-26
  0.118000001       3.96271796E-26
  0.119000003       3.41839099E-26
  0.119999997       2.44740167E-26
  0.120999999       9.82204704E-27
  0.122000001      -1.03058838E-26
  0.123000003      -3.62230198E-26
  0.123999998      -6.79361033E-26
  0.125000000      -1.05056872E-25
  0.126000002      -1.46716345E-25
  0.127000004      -1.91488601E-25
  0.128000006      -2.37331466E-25
  0.128999993      -2.81552617E-25
  0.129999995      -3.20809713E-25
  0.130999997      -3.51153075E-25
  0.131999999      -3.68118441E-25
  0.133000001      -3.66876157E-25
  0.134000003      -3.42440624E-25
  0.135000005      -2.89940945E-25
  0.136000007      -2.04950168E-25
  0.136999995      -8.38660338E-26
  0.137999997       7.56686104E-26
  0.138999999       2.74322288E-25
  0.140000001       5.10629960E-25
  0.141000003       7.80572837E-25
  0.142000005       1.07721294E-24
  0.143000007       1.39041527E-24
  0.143999994       1.70669090E-24
  0.144999996       2.00919500E-24
  0.145999998       2.27791120E-24
  0.147000000       2.49004635E-24
  0.148000002       2.62065628E-24
  0.149000004       2.64351214E-24
  0.150000006       2.53220347E-24
  0.150999993       2.26146601E-24
  0.151999995       1.80870285E-24
  0.152999997       1.15565746E-24
  0.153999999       2.90178934E-25
  0.155000001      -7.91988591E-25
  0.156000003      -2.08547548E-24
  0.157000005      -3.57370398E-24
  0.158000007      -5.22754811E-24
  0.158999994      -7.00432990E-24
  0.159999996      -8.84723914E-24
  0.160999998      -1.06852693E-23
  0.162000000      -1.24337258E-23
  0.163000003      -1.39953706E-23
  0.164000005      -1.52622292E-23
  0.165000007      -1.61180849E-23
  0.165999994      -1.64416504E-23
  0.166999996      -1.61103762E-23
  0.167999998      -1.50048838E-23
  0.169000000      -1.30139243E-23
  0.170000002      -1.00398327E-23
  0.171000004      -6.00436705E-24
  0.172000006      -8.54863418E-25
  0.172999993       5.42938093E-24
  0.173999995       1.28305923E-23
  0.174999997       2.12859774E-23
  0.175999999       3.06812555E-23
  0.177000001       4.08444314E-23
  0.178000003       5.15399401E-23
  0.179000005       6.24634643E-23
  0.180000007       7.32376697E-23
  0.180999994       8.34092675E-23
  0.181999996       9.24479348E-23
  0.182999998       9.97476686E-23
  0.184000000       1.04631292E-22
  0.185000002       1.06359036E-22
  0.186000004       1.04142021E-22
  0.187000006       9.71617132E-23
  0.187999994       8.45962318E-23
  0.188999996       6.56544634E-23
  0.189999998       3.96186362E-23
  0.191000000       5.89573302E-24
  0.192000002      -3.59223275E-23
  0.193000004      -8.59903951E-23
  0.194000006      -1.44135048E-22
  0.194999993      -2.09775040E-22
  0.195999995      -2.81840539E-22
  0.196999997      -3.58695281E-22
  0.197999999      -4.38067108E-22
  0.199000001      -5.16993335E-22
  0.200000003      -5.91787901E-22
  0.201000005      -6.58038434E-22
  0.202000007      -7.10641850E-22
  0.202999994      -7.43885787E-22
  0.203999996      -7.51584463E-22
  0.204999998      -7.27274673E-22
  0.206000000      -6.64476246E-22
  0.207000002      -5.57018850E-22
  0.208000004      -3.99433396E-22
  0.209000006      -1.87401317E-22
  0.209999993       8.17484944E-23
  0.210999995       4.08511632E-22
  0.211999997       7.90670918E-22
  0.213000000       1.22277732E-21
  0.214000002       1.69568209E-21
  0.215000004       2.19615625E-21
  0.216000006       2.70664099E-21
  0.216999993       3.20516614E-21
  0.217999995       3.66548529E-21
  0.218999997       4.05746146E-21
  0.219999999       4.34773966E-21
  0.221000001       4.50073172E-21
  0.222000003       4.47992578E-21
  0.223000005       4.24952004E-21
  0.224000007       3.77635940E-21
  0.224999994       3.03213797E-21
  0.225999996       1.99580305E-21
  0.226999998       6.56076354E-22
  0.228000000      -9.86014032E-22
  0.229000002      -2.91472316E-21
  0.230000004      -5.09744681E-21
  0.231000006      -7.48300863E-21
  0.231999993      -1.00005490E-20
  0.232999995      -1.25591818E-20
  0.233999997      -1.50485899E-20
  0.234999999      -1.73406896E-20
  0.236000001      -1.92924885E-20
  0.237000003      -2.07502021E-20
  0.238000005      -2.15546611E-20
  0.238999993      -2.15479435E-20
  0.239999995      -2.05811568E-20
  0.240999997      -1.85231379E-20
  0.241999999      -1.52698478E-20
  0.243000001      -1.07540701E-20
  0.244000003      -4.95502190E-21
  0.245000005       2.09262841E-21
  0.246000007       1.02908700E-20
  0.246999994       1.94721660E-20
  0.247999996       2.93955465E-20
  0.248999998       3.97455599E-20
  0.250000000       5.01345607E-20
  0.250999987       6.01088047E-20
  0.252000004       6.91586388E-20
  0.252999991       7.67329119E-20
  0.254000008       8.22576448E-20
  0.254999995       8.51586770E-20
  0.256000012       8.48878336E-20
  0.256999999       8.09519143E-20
  0.257999986       7.29435652E-20
  0.259000003       6.05728336E-20
  0.259999990       4.36980518E-20
  0.261000007       2.23544947E-20
  0.261999995      -3.22085713E-21
  0.263000011      -3.25701558E-20
  0.263999999      -6.50028252E-20
  0.264999986      -9.95925781E-20
  0.266000003      -1.35184667E-19
  0.266999990      -1.70414561E-19
  0.268000007      -2.03738514E-19
  0.268999994      -2.33476639E-19
  0.270000011      -2.57867740E-19
  0.270999998      -2.75135419E-19
  0.272000015      -2.83563589E-19
  0.273000002      -2.81579363E-19
  0.273999989      -2.67840540E-19
  0.275000006      -2.41324309E-19
  0.275999993      -2.01413258E-19
  0.277000010      -1.47974495E-19
  0.277999997      -8.14276207E-20
  0.279000014      -2.79689516E-21
  0.280000001       8.62564814E-20
  0.280999988       1.83425957E-19
  0.282000005       2.85778235E-19
  0.282999992       3.89801290E-19
  0.284000009       4.91483423E-19
  0.284999996       5.86422871E-19
  0.286000013       6.69967337E-19
  0.287000000       7.37380438E-19
  0.287999988       7.84030684E-19
  0.289000005       8.05597402E-19
  0.289999992       7.98286677E-19
  0.291000009       7.59048486E-19
  0.291999996       6.85786288E-19
  0.293000013       5.77548826E-19
  0.294000000       4.34693855E-19
  0.294999987       2.59014316E-19
  0.296000004       5.38167390E-20
  0.296999991      -1.76055441E-19
  0.298000008      -4.24260833E-19
  0.298999995      -6.83065846E-19
  0.300000012      -9.43519016E-19
  0.300999999      -1.19569350E-18
  0.301999986      -1.42899380E-18
  0.303000003      -1.63251962E-18
  0.303999990      -1.79547720E-18
  0.305000007      -1.90762532E-18
  0.305999994      -1.95973873E-18
  0.307000011      -1.94407255E-18
  0.307999998      -1.85480859E-18
  0.308999985      -1.68846092E-18
  0.310000002      -1.44422219E-18
  0.310999990      -1.12423068E-18
  0.312000006      -7.33739034E-19
  0.312999994      -2.81171227E-19
  0.314000010       2.21945199E-19
  0.314999998       7.61178010E-19
  0.316000015       1.31952296E-18
  0.317000002       1.87786625E-18
  0.317999989       2.41556819E-18
  0.319000006       2.91115215E-18
  0.319999993       3.34307836E-18
  0.321000010       3.69057839E-18
  0.321999997       3.93451643E-18
  0.323000014       4.05824776E-18
  0.324000001       4.04843574E-18
  0.324999988       3.89579362E-18
  0.326000005       3.59571318E-18
  0.326999992       3.14874779E-18
  0.328000009       2.56092326E-18
  0.328999996       1.84384928E-18
  0.330000013       1.01461829E-18
  0.331000000       9.54811415E-20
  0.331999987      -8.86697809E-19
  0.333000004      -1.90119812E-18
  0.333999991      -2.91439160E-18
  0.335000008      -3.89085536E-18
  0.335999995      -4.79460973E-18
  0.337000012      -5.59043854E-18
  0.338000000      -6.24524051E-18
  0.338999987      -6.72935954E-18
  0.340000004      -7.01783754E-18
  0.340999991      -7.09153602E-18
  0.342000008      -6.93807458E-18
  0.342999995      -6.55254555E-18
  0.344000012      -5.93795904E-18
  0.344999999      -5.10539969E-18
  0.345999986      -4.07387527E-18
  0.347000003      -2.86985702E-18
  0.347999990      -1.52651746E-18
  0.349000007      -8.26964770E-20
  0.349999994       1.41837404E-18
  0.351000011       2.93053527E-18
  0.351999998       4.40630013E-18
  0.352999985       5.79852120E-18
  0.354000002       7.06206110E-18
  0.354999989       8.15538790E-18
  0.356000006       9.04204197E-18
  0.356999993       9.69189822E-18
  0.358000010       1.00821769E-17
  0.358999997       1.01981667E-17
  0.360000014       1.00336165E-17
  0.361000001       9.59079938E-18
  0.361999989       8.88024710E-18
  0.363000005       7.92016503E-18
  0.363999993       6.73557953E-18
  0.365000010       5.35725509E-18
  0.365999997       3.82044450E-18
  0.367000014       2.16354135E-18
  0.368000001       4.26706160E-19
  0.368999988      -1.34945914E-18
  0.370000005      -3.12512103E-18
  0.370999992      -4.86224912E-18
  0.372000009      -6.52542478E-18
  0.372999996      -8.08239500E-18
  0.374000013      -9.50435404E-18
  0.375000000      -1.07659592E-17
  0.375999987      -1.18451073E-17
  0.377000004      -1.27225110E-17
  0.377999991      -1.33811428E-17
  0.379000008      -1.38056196E-17
  0.379999995      -1.39816039E-17
  0.381000012      -1.38953273E-17
  0.381999999      -1.35332969E-17
  0.382999986      -1.28822850E-17
  0.384000003      -1.19296501E-17
  0.384999990      -1.06640315E-17
  0.386000007      -9.07643862E-18
  0.386999995      -7.16170741E-18
  0.388000011      -4.92028949E-18
  0.388999999      -2.36028233E-18
  0.389999986       5.00407564E-19
  0.391000003       3.63191391E-18
  0.391999990       6.99043305E-18
  0.393000007       1.05166014E-17
  0.393999994       1.41344107E-17
  0.395000011       1.77508443E-17
  0.395999998       2.12563944E-17
  0.397000015       2.45265967E-17
  0.398000002       2.74246719E-17
  0.398999989       2.98053226E-17
  0.400000006       3.15196643E-17
  0.400999993       3.24211985E-17
  0.402000010       3.23726960E-17
  0.402999997       3.12537224E-17
  0.404000014       2.89685665E-17
  0.405000001       2.54541623E-17
  0.405999988       2.06876564E-17
  0.407000005       1.46931513E-17
  0.407999992       7.54720004E-18
  0.409000009      -6.17398976E-19
  0.409999996      -9.60989484E-18
  0.411000013      -1.91823267E-17
  0.412000000      -2.90329807E-17
  0.412999988      -3.88127371E-17
  0.414000005      -4.81343148E-17
  0.414999992      -5.65843949E-17
  0.416000009      -6.37382896E-17
  0.416999996      -6.91768698E-17
  0.418000013      -7.25051137E-17
  0.419000000      -7.33716946E-17
  0.419999987      -7.14887867E-17
  0.421000004      -6.66511433E-17
  0.421999991      -5.87536595E-17
  0.423000008      -4.78062881E-17
  0.423999995      -3.39455303E-17
  0.425000012      -1.74415300E-17
  0.425999999       1.29993584E-18
  0.426999986       2.17411421E-17
  0.428000003       4.32221888E-17
  0.428999990       6.49769826E-17
  0.430000007       8.61553077E-17
  0.430999994       1.05850584E-16
  0.432000011       1.23132584E-16
  0.432999998       1.37084196E-16
  0.433999985       1.46840877E-16
  0.435000002       1.51631405E-16
  0.435999990       1.50818279E-16
  0.437000006       1.43935898E-16
  0.437999994       1.30724792E-16
  0.439000010       1.11160038E-16
  0.439999998       8.54721690E-17
  0.441000015       5.41591113E-17
  0.442000002       1.79879027E-17
  0.442999989      -2.20147602E-17
  0.444000006      -6.45835094E-17
  0.444999993      -1.08246887E-16
  0.446000010      -1.51371048E-16
  0.446999997      -1.92213507E-16
  0.448000014      -2.28985484E-16
  0.449000001      -2.59920874E-16
  0.449999988      -2.83349276E-16
  0.451000005      -2.97770568E-16
  0.451999992      -3.01927726E-16
  0.453000009      -2.94875012E-16
  0.453999996      -2.76038217E-16
  0.455000013      -2.45263922E-16
  0.456000000      -2.02854954E-16
  0.456999987      -1.49589830E-16
  0.458000004      -8.67241367E-17
  0.458999991      -1.59727881E-17
  0.460000008       6.05275053E-17
  0.460999995       1.40275088E-16
  0.462000012       2.20478520E-16
  0.463000000       2.98148001E-16
  0.463999987       3.70200408E-16
  0.465000004       4.33574275E-16
  0.465999991       4.85350885E-16
  0.467000008       5.22876562E-16
  0.467999995       5.43881708E-16
  0.469000012       5.46591049E-16
  0.469999999       5.29820644E-16
  0.470999986       4.93056343E-16
  0.472000003       4.36510594E-16
  0.472999990       3.61152773E-16
  0.474000007       2.68711859E-16
  0.474999994       1.61648813E-16
  0.476000011       4.30989488E-17
  0.476999998      -8.32151902E-17
  0.477999985      -2.13098230E-16
  0.479000002      -3.42020443E-16
  0.479999989      -4.65275833E-16
  0.481000006      -5.78154250E-16
  0.481999993      -6.76121551E-16
  0.483000010      -7.55000647E-16
  0.483999997      -8.11146332E-16
  0.485000014      -8.41606960E-16
  0.486000001      -8.44265108E-16
  0.486999989      -8.17951871E-16
  0.488000005      -7.62527911E-16
  0.488999993      -6.78927930E-16
  0.490000010      -5.69164371E-16
  0.490999997      -4.36289307E-16
  0.492000014      -2.84314100E-16
  0.493000001      -1.18088715E-16
  0.493999988       5.68560410E-17
  0.495000005       2.34498160E-16
  0.495999992       4.08539766E-16
  0.497000009       5.72639959E-16
  0.497999996       7.20656902E-16
  0.499000013       8.46889163E-16
  0.500000000       9.46307326E-16
  0.500999987       1.01476548E-15
  0.501999974       1.04918414E-15
  0.503000021       1.04769579E-15
  0.504000008       1.00974724E-15
  0.504999995       9.36151507E-16
  0.505999982       8.29088131E-16
  0.507000029       6.92048258E-16
  0.508000016       5.29726941E-16
  0.509000003       3.47864705E-16
  0.509999990       1.53043938E-16
  0.510999978      -4.75531609E-17
  0.512000024      -2.46415755E-16
  0.513000011      -4.35994645E-16
  0.513999999      -6.09000278E-16
  0.514999986      -7.58696411E-16
  0.515999973      -8.79177530E-16
  0.517000020      -9.65618089E-16
  0.518000007      -1.01448342E-15
  0.518999994      -1.02369215E-15
  0.519999981      -9.92722720E-16
  0.521000028      -9.22658908E-16
  0.522000015      -8.16170878E-16
  0.523000002      -6.77431487E-16
  0.523999989      -5.11969689E-16
  0.524999976      -3.26466271E-16
  0.526000023      -1.28499358E-16
  0.527000010       7.37513440E-17
  0.527999997       2.71829522E-16
  0.528999984       4.57343899E-16
  0.529999971       6.22312671E-16
  0.531000018       7.59496698E-16
  0.532000005       8.62707239E-16
  0.532999992       9.27075655E-16
  0.533999979       9.49272789E-16
  0.535000026       9.27668684E-16
  0.536000013       8.62425283E-16
  0.537000000       7.55516755E-16
  0.537999988       6.10676080E-16
  0.538999975       4.33269105E-16
  0.540000021       2.30100285E-16
  0.541000009       9.15708873E-18
  0.541999996      -2.20696737E-16
  0.542999983      -4.50067251E-16
  0.544000030      -6.69402038E-16
  0.545000017      -8.69372065E-16
  0.546000004      -1.04124860E-15
  0.546999991      -1.17725933E-15
  0.547999978      -1.27090909E-15
  0.549000025      -1.31725164E-15
  0.550000012      -1.31310129E-15
  0.550999999      -1.25717456E-15
  0.551999986      -1.15015745E-15
  0.552999973      -9.94693342E-16
  0.554000020      -7.95293210E-16
  0.555000007      -5.58171207E-16
  0.555999994      -2.91012277E-16
  0.556999981      -2.68185355E-18
  0.558000028       2.97110968E-16
  0.559000015       5.98182185E-16
  0.560000002       8.90258627E-16
  0.560999990       1.16336428E-15
  0.561999977       1.40819153E-15
  0.563000023       1.61644210E-15
  0.564000010       1.78112352E-15
  0.564999998       1.89678968E-15
  0.565999985       1.95971576E-15
  0.566999972       1.96800080E-15
  0.568000019       1.92159673E-15
  0.569000006       1.82226115E-15
  0.569999993       1.67343969E-15
  0.570999980       1.48008293E-15
  0.572000027       1.24840861E-15
  0.573000014       9.85620984E-16
  0.574000001       6.99599239E-16
  0.574999988       3.98571883E-16
  0.575999975       9.07912117E-17
  0.577000022      -2.15777051E-16
  0.578000009      -5.13734641E-16
  0.578999996      -7.96490121E-16
  0.579999983      -1.05844655E-15
  0.580999970      -1.29513000E-15
  0.582000017      -1.50325499E-15
  0.583000004      -1.68072534E-15
  0.583999991      -1.82657340E-15
  0.584999979      -1.94084280E-15
  0.586000025      -2.02442378E-15
  0.587000012      -2.07885073E-15
  0.588000000      -2.10607670E-15
  0.588999987      -2.10823854E-15
  0.589999974      -2.08742630E-15
  0.591000021      -2.04547297E-15
  0.592000008      -1.98377679E-15
  0.592999995      -1.90316889E-15
  0.593999982      -1.80383480E-15
  0.595000029      -1.68529709E-15
  0.596000016      -1.54646066E-15
  0.597000003      -1.38572187E-15
  0.597999990      -1.20113528E-15
  0.598999977      -9.90632031E-16
  0.600000024      -7.52276695E-16
  0.601000011      -4.84550333E-16
  0.601999998      -1.86642532E-16
  0.602999985       1.41264515E-16
  0.603999972       4.97738265E-16
  0.605000019       8.79881679E-16
  0.606000006       1.28317889E-15
  0.606999993       1.70141528E-15
  0.607999980       2.12668204E-15
  0.609000027       2.54947219E-15
  0.610000014       2.95887286E-15
  0.611000001       3.34284898E-15
  0.611999989       3.68861376E-15
  0.612999976       3.98307333E-15
  0.614000022       4.21333119E-15
  0.615000010       4.36723157E-15
  0.615999997       4.43391721E-15
  0.616999984       4.40438159E-15
  0.617999971       4.27198399E-15
  0.619000018       4.03290640E-15
  0.620000005       3.68652159E-15
  0.620999992       3.23565845E-15
  0.621999979       2.68673684E-15
  0.623000026       2.04976785E-15
  0.624000013       1.33820395E-15
  0.625000000       5.68640587E-16
  0.625999987      -2.39626335E-16
  0.626999974      -1.06517591E-15
  0.628000021      -1.88515335E-15
  0.629000008      -2.67605215E-15
  0.629999995      -3.41455943E-15
  0.630999982      -4.07843018E-15
  0.632000029      -4.64735638E-15
  0.633000016      -5.10379152E-15
  0.634000003      -5.43369857E-15
  0.634999990      -5.62717868E-15
  0.635999978      -5.67895992E-15
  0.637000024      -5.58870814E-15
  0.638000011      -5.36115104E-15
  0.638999999      -5.00599479E-15
  0.639999986      -4.53763385E-15
  0.640999973      -3.97465679E-15
  0.642000020      -3.33916397E-15
  0.643000007      -2.65591628E-15
  0.643999994      -1.95134919E-15
  0.644999981      -1.25248613E-15
  0.646000028      -5.85797451E-16
  0.647000015       2.39503264E-17
  0.648000002       5.54804039E-16
  0.648999989       9.88644256E-16
  0.649999976       1.31206780E-15
  0.651000023       1.51709075E-15
  0.652000010       1.60163469E-15
  0.652999997       1.56976656E-15
  0.653999984       1.43167425E-15
  0.654999971       1.20336827E-15
  0.656000018       9.06112754E-16
  0.657000005       5.65599474E-16
  0.657999992       2.10892410E-16
  0.658999979      -1.26822061E-16
  0.660000026      -4.15631550E-16
  0.661000013      -6.24387161E-16
  0.662000000      -7.24225134E-16
  0.662999988      -6.90057360E-16
  0.663999975      -5.01964854E-16
  0.665000021      -1.46431721E-16
  0.666000009       3.82640146E-16
  0.666999996       1.08318700E-15
  0.667999983       1.94455281E-15
  0.669000030       2.94740445E-15
  0.670000017       4.06400860E-15
  0.671000004       5.25887478E-15
  0.671999991       6.48975553E-15
  0.672999978       7.70897475E-15
  0.674000025       8.86504344E-15
  0.675000012       9.90451126E-15
  0.675999999       1.07739880E-14
  0.676999986       1.14222596E-14
  0.677999973       1.18024182E-14
  0.679000020       1.18739230E-14
  0.680000007       1.16045115E-14
  0.680999994       1.09718702E-14
  0.681999981       9.96500720E-15
  0.683000028       8.58524474E-15
  0.684000015       6.84679432E-15
  0.685000002       4.77687195E-15
  0.685999990       2.41533774E-15
  0.686999977      -1.86147335E-16
  0.688000023      -2.96542211E-15
  0.689000010      -5.85155347E-15
  0.689999998      -8.76693669E-15
  0.690999985      -1.16296997E-14
  0.691999972      -1.43563242E-14
  0.693000019      -1.68644073E-14
  0.694000006      -1.90754395E-14
  0.694999993      -2.09175125E-14
  0.695999980      -2.23278681E-14
  0.697000027      -2.32551507E-14
  0.698000014      -2.36613216E-14
  0.699000001      -2.35231248E-14
  0.699999988      -2.28330674E-14
  0.700999975      -2.15998535E-14
  0.702000022      -1.98482588E-14
  0.703000009      -1.76184513E-14
  0.703999996      -1.49647598E-14
  0.704999983      -1.19539507E-14
  0.705999970      -8.66306166E-15
  0.707000017      -5.17687183E-15
  0.708000004      -1.58510453E-15
  0.708999991       2.02053569E-15
  0.709999979       5.54938294E-15
  0.711000025       8.91477190E-15
  0.712000012       1.20368328E-14
  0.713000000       1.48450096E-14
  0.713999987       1.72802124E-14
  0.714999974       1.92965269E-14
  0.716000021       2.08624012E-14
  0.717000008       2.19612892E-14
  0.717999995       2.25917206E-14
  0.718999982       2.27667870E-14
  0.720000029       2.25131007E-14
  0.721000016       2.18692353E-14
  0.722000003       2.08837481E-14
  0.722999990       1.96128429E-14
  0.723999977       1.81177959E-14
  0.725000024       1.64622327E-14
  0.726000011       1.47093793E-14
  0.726999998       1.29194081E-14
  0.727999985       1.11469688E-14
  0.728999972       9.43903616E-15
  0.730000019       7.83313877E-15
  0.731000006       6.35605858E-15
  0.731999993       5.02304090E-15
  0.732999980       3.83755942E-15
  0.734000027       2.79163319E-15
  0.735000014       1.86668782E-15
  0.736000001       1.03491640E-15
  0.736999989       2.61082104E-16
  0.737999976      -4.95318451E-16
  0.739000022      -1.27762553E-15
  0.740000010      -2.12942918E-15
  0.740999997      -3.09193877E-15
  0.741999984      -4.20142699E-15
  0.742999971      -5.48686344E-15
  0.744000018      -6.96784549E-15
  0.745000005      -8.65292013E-15
  0.745999992      -1.05383807E-14
  0.746999979      -1.26075916E-14
  0.748000026      -1.48308879E-14
  0.749000013      -1.71660493E-14
  0.750000000      -1.95593613E-14
  0.750999987      -2.19471980E-14
  0.751999974      -2.42580936E-14
  0.753000021      -2.64152036E-14
  0.754000008      -2.83390797E-14
  0.754999995      -2.99506378E-14
  0.755999982      -3.11741803E-14
  0.757000029      -3.19403961E-14
  0.758000016      -3.21891765E-14
  0.759000003      -3.18721354E-14
  0.759999990      -3.09547615E-14
  0.760999978      -2.94180777E-14
  0.762000024      -2.72597564E-14
  0.763000011      -2.44946343E-14
  0.763999999      -2.11546208E-14
  0.764999986      -1.72879865E-14
  0.765999973      -1.29580600E-14
  0.767000020      -8.24140018E-15
  0.768000007      -3.22550167E-15
  0.768999994       1.99386939E-15
  0.769999981       7.31559995E-15
  0.771000028       1.26363026E-14
  0.772000015       1.78534132E-14
  0.773000002       2.28681837E-14
  0.773999989       2.75884780E-14
  0.774999976       3.19312312E-14
  0.776000023       3.58245165E-14
  0.777000010       3.92091145E-14
  0.777999997       4.20395699E-14
  0.778999984       4.42846714E-14
  0.779999971       4.59273969E-14
  0.781000018       4.69642974E-14
  0.782000005       4.74044157E-14
  0.782999992       4.72677656E-14
  0.783999979       4.65834850E-14
  0.785000026       4.53877455E-14
  0.786000013       4.37215504E-14
  0.787000000       4.16284947E-14
  0.787999988       3.91526445E-14
  0.788999975       3.63365987E-14
  0.790000021       3.32198631E-14
  0.791000009       2.98375792E-14
  0.791999996       2.62196982E-14
  0.792999983       2.23906112E-14
  0.794000030       1.83692681E-14
  0.795000017       1.41697533E-14
  0.796000004       9.80228878E-15
  0.796999991       5.27460545E-15
  0.797999978       5.93598148E-16
  0.799000025      -4.23282862E-15
  0.800000012      -9.19383706E-15
  0.800999999      -1.42737689E-14
  0.801999986      -1.94504040E-14
  0.802999973      -2.46934956E-14
  0.804000020      -2.99636584E-14
  0.805000007      -3.52117085E-14
  0.805999994      -4.03785383E-14
  0.806999981      -4.53955450E-14
  0.808000028      -5.01856213E-14
  0.809000015      -5.46647349E-14
  0.810000002      -5.87440320E-14
  0.810999990      -6.23323889E-14
  0.811999977      -6.53393423E-14
  0.813000023      -6.76782916E-14
  0.814000010      -6.92697988E-14
  0.814999998      -7.00448881E-14
  0.815999985      -6.99481705E-14
  0.816999972      -6.89407095E-14
  0.818000019      -6.70023661E-14
  0.819000006      -6.41336349E-14
  0.819999993      -6.03567896E-14
  0.820999980      -5.57162416E-14
  0.822000027      -5.02781580E-14
  0.823000014      -4.41292104E-14
  0.824000001      -3.73745394E-14
  0.824999988      -3.01349522E-14
  0.825999975      -2.25434787E-14
  0.827000022      -1.47413396E-14
  0.828000009      -6.87353388E-15
  0.828999996       9.15854162E-16
  0.829999983       8.48840346E-15
  0.830999970       1.57160052E-14
  0.832000017       2.24852231E-14
  0.833000004       2.87011727E-14
  0.833999991       3.42907770E-14
  0.834999979       3.92052622E-14
  0.836000025       4.34217752E-14
  0.837000012       4.69440262E-14
  0.838000000       4.98019764E-14
  0.838999987       5.20505033E-14
  0.839999974       5.37671307E-14
  0.841000021       5.50489050E-14
  0.842000008       5.60085154E-14
  0.842999995       5.67698083E-14
  0.843999982       5.74629184E-14
  0.845000029       5.82191427E-14
  0.846000016       5.91658409E-14
  0.847000003       6.04215232E-14
  0.847999990       6.20913368E-14
  0.848999977       6.42632039E-14
  0.850000024       6.70046971E-14
  0.851000011       7.03608246E-14
  0.851999998       7.43528774E-14
  0.852999985       7.89783210E-14
  0.853999972       8.42117784E-14
  0.855000019       9.00071101E-14
  0.856000006       9.63004700E-14