   0.00000000       0.00000000    
   1.00000005E-03   0.00000000    
   2.00000009E-03   0.00000000    
   3.00000003E-03   0.00000000    
   4.00000019E-03   0.00000000    
   4.99999989E-03   0.00000000    
   6.00000005E-03   0.00000000    
   7.00000022E-03   0.00000000    
   8.00000038E-03   0.00000000    
   8.99999961E-03   0.00000000    
   9.99999978E-03   0.00000000    
   1.09999999E-02   0.00000000    
   1.20000001E-02   0.00000000    
   1.30000003E-02  -4.81846622E-38
   1.40000004E-02  -4.66164691E-37
   1.49999997E-02  -1.89658703E-36
   1.60000008E-02  -1.00794522E-35
   1.70000009E-02  -3.66322410E-35
   1.79999992E-02  -1.09580915E-34
   1.89999994E-02  -2.98441485E-34
   1.99999996E-02  -7.53979020E-34
   2.09999997E-02  -1.79102489E-33
   2.19999999E-02  -4.04526140E-33
   2.30000000E-02  -8.72181543E-33
   2.40000002E-02  -1.79796328E-32
   2.50000004E-02  -3.54972522E-32
   2.60000005E-02  -6.73000726E-32
   2.70000007E-02  -1.22877199E-31
   2.80000009E-02  -2.16440813E-31
   2.89999992E-02  -3.68270743E-31
   2.99999993E-02  -6.05802440E-31
   3.09999995E-02  -9.63906308E-31
   3.20000015E-02  -1.48361653E-30
   3.29999998E-02  -2.20814940E-30
   3.40000018E-02  -3.17490228E-30
   3.50000001E-02  -4.40194310E-30
   3.59999985E-02  -5.86763409E-30
   3.70000005E-02  -7.48264258E-30
   3.79999988E-02  -9.05482584E-30
   3.90000008E-02  -1.02495411E-29
   3.99999991E-02  -1.05510026E-29
   4.10000011E-02  -9.23433530E-30
   4.19999994E-02  -5.36279707E-30
   4.30000015E-02   2.17023811E-30
   4.39999998E-02   1.45305125E-29
   4.50000018E-02   3.27368850E-29
   4.60000001E-02   5.73353979E-29
   4.69999984E-02   8.79368539E-29
   4.80000004E-02   1.22618748E-28
   4.89999987E-02   1.57222208E-28
   5.00000007E-02   1.84618573E-28
   5.09999990E-02   1.94080101E-28
   5.20000011E-02   1.70963754E-28
   5.29999994E-02   9.70033075E-29
   5.40000014E-02  -4.84066783E-29
   5.49999997E-02  -2.85472868E-28
   5.60000017E-02  -6.29298765E-28
   5.70000000E-02  -1.08270572E-27
   5.79999983E-02  -1.62615972E-27
   5.90000004E-02  -2.20458967E-27
   5.99999987E-02  -2.71123943E-27
   6.10000007E-02  -2.96924182E-27
   6.19999990E-02  -2.71233683E-27
   6.30000010E-02  -1.56710724E-27
   6.40000030E-02   9.59765425E-28
   6.49999976E-02   5.48449612E-27
   6.59999996E-02   1.27334568E-26
   6.70000017E-02   2.35076051E-26
   6.80000037E-02   3.86162821E-26
   6.89999983E-02   5.87724794E-26
   7.00000003E-02   8.44424570E-26
   7.10000023E-02   1.15644852E-25
   7.19999969E-02   1.51698014E-25
   7.29999989E-02   1.90920018E-25
   7.40000010E-02   2.30293471E-25
   7.50000030E-02   2.65117094E-25
   7.59999976E-02   2.88677584E-25
   7.69999996E-02   2.91988433E-25
   7.80000016E-02   2.63655951E-25
   7.90000036E-02   1.89945565E-25
   7.99999982E-02   5.51314487E-26
   8.10000002E-02  -1.57781105E-25
   8.20000023E-02  -4.65872802E-25
   8.29999968E-02  -8.84589965E-25
   8.39999989E-02  -1.42543290E-24
   8.50000009E-02  -2.09303652E-24
   8.60000029E-02  -2.88168147E-24
   8.69999975E-02  -3.77134559E-24
   8.79999995E-02  -4.72349281E-24
   8.90000015E-02  -5.67690024E-24
   9.00000036E-02  -6.54393214E-24
   9.09999982E-02  -7.20778896E-24
   9.20000002E-02  -7.52136038E-24
   9.30000022E-02  -7.30839949E-24
   9.39999968E-02  -6.36778305E-24
   9.49999988E-02  -4.48162372E-24
   9.60000008E-02  -1.42791870E-24
   9.70000029E-02   3.00172520E-24
   9.79999974E-02   8.97902150E-24
   9.89999995E-02   1.66106986E-23
  0.100000001       2.59055484E-23
  0.101000004       3.67380191E-23
  0.101999998       4.88102352E-23
  0.103000000       6.16151043E-23
  0.104000002       7.44039406E-23
  0.104999997       8.61627455E-23
  0.105999999       9.56019648E-23
  0.107000001       1.01164993E-22
  0.108000003       1.01060661E-22
  0.108999997       9.33249398E-23
  0.109999999       7.59161617E-23
  0.111000001       4.68467636E-23
  0.112000003       4.35268362E-24
  0.112999998      -5.29012048E-23
  0.114000000      -1.25584397E-22
  0.115000002      -2.13441426E-22
  0.115999997      -3.15022881E-22
  0.116999999      -4.27423923E-22
  0.118000001      -5.46052598E-22
  0.119000003      -6.64453224E-22
  0.119999997      -7.74214346E-22
  0.120999999      -8.64991511E-22
  0.122000001      -9.24676449E-22
  0.123000003      -9.39741194E-22
  0.123999998      -8.95780866E-22
  0.125000000      -7.78271186E-22
  0.126000002      -5.73545549E-22
  0.127000004      -2.69982180E-22
  0.128000006       1.40625715E-22
  0.128999993       6.61564504E-22
  0.129999995       1.28962728E-21
  0.130999997       2.01356501E-21
  0.131999999       2.81267520E-21
  0.133000001       3.65565929E-21
  0.134000003       4.49989606E-21
  0.135000005       5.29128455E-21
  0.136000007       5.96481111E-21
  0.136999995       6.44598385E-21
  0.137999997       6.65325318E-21
  0.138999999       6.50149906E-21
  0.140000001       5.90661766E-21
  0.141000003       4.79116945E-21
  0.142000005       3.09097584E-21
  0.143000007       7.62462716E-22
  0.143999994      -2.20955269E-21
  0.144999996      -5.80402344E-21
  0.145999998      -9.95627382E-21
  0.147000000      -1.45516224E-20
  0.148000002      -1.94206417E-20
  0.149000004      -2.43367684E-20
  0.150000006      -2.90168884E-20
  0.150999993      -3.31255850E-20
  0.151999995      -3.62835538E-20
  0.152999997      -3.80805940E-20
  0.153999999      -3.80933991E-20
  0.155000001      -3.59080590E-20
  0.156000003      -3.11469237E-20
  0.157000005      -2.34991220E-20
  0.158000007      -1.27536839E-20
  0.158999994       1.16625398E-21
  0.159999996       1.81699220E-20
  0.160999998       3.79682751E-20
  0.162000000       6.00486402E-20
  0.163000003       8.36572667E-20
  0.164000005       1.07792387E-19
  0.165000007       1.31210361E-19
  0.165999994       1.52447125E-19
  0.166999996       1.69856795E-19
  0.167999998       1.81668508E-19
  0.169000000       1.86061742E-19
  0.170000002       1.81259441E-19
  0.171000004       1.65636921E-19
  0.172000006       1.37843368E-19
  0.172999993       9.69313183E-20
  0.173999995       4.24882323E-20
  0.174999997      -2.52368831E-20
  0.175999999      -1.05220011E-19
  0.177000001      -1.95570622E-19
  0.178000003      -2.93471377E-19
  0.179000005      -3.95157982E-19
  0.180000007      -4.95948027E-19
  0.180999994      -5.90325509E-19
  0.181999996      -6.72086626E-19
  0.182999998      -7.34549567E-19
  0.184000000      -7.70828054E-19
  0.185000002      -7.74164798E-19
  0.186000004      -7.38316754E-19
  0.187000006      -6.57980250E-19
  0.187999994      -5.29239565E-19
  0.188999996      -3.50018374E-19
  0.189999998      -1.20510380E-19
  0.191000000       1.56437742E-19
  0.192000002       4.75020202E-19
  0.193000004       8.26271593E-19
  0.194000006       1.19799979E-18
  0.194999993       1.57487889E-18
  0.195999995       1.93872214E-18
  0.196999997       2.26894960E-18
  0.197999999       2.54325820E-18
  0.199000001       2.73848936E-18
  0.200000003       2.83168077E-18
  0.201000005       2.80127568E-18
  0.202000007       2.62845118E-18
  0.202999994       2.29851407E-18
  0.203999996       1.80230248E-18
  0.204999998       1.13752017E-18
  0.206000000       3.09924516E-19
  0.207000002      -6.65714337E-19
  0.208000004      -1.76496851E-18
  0.209000006      -2.95350132E-18
  0.209999993      -4.18728173E-18
  0.210999995      -5.41332056E-18
  0.211999997      -6.57096852E-18
  0.213000000      -7.59379265E-18
  0.214000002      -8.41201407E-18
  0.215000004      -8.95547007E-18
  0.216000006      -9.15702421E-18
  0.216999993      -8.95631132E-18
  0.217999995      -8.30367822E-18
  0.218999997      -7.16415173E-18
  0.219999999      -5.52123661E-18
  0.221000001      -3.38033024E-18
  0.222000003      -7.71528935E-19
  0.223000005       2.24839209E-18
  0.224000007       5.59503974E-18
  0.224999994       9.15669086E-18
  0.225999996       1.27959481E-17
  0.226999998       1.63528809E-17
  0.228000000       1.96496804E-17
  0.229000002       2.24967848E-17
  0.230000004       2.47004039E-17
  0.231000006       2.60712125E-17
  0.231999993       2.64339693E-17
  0.232999995       2.56376955E-17
  0.233999997       2.35659852E-17
  0.234999999       2.01469781E-17
  0.236000001       1.53624612E-17
  0.237000003       9.25554225E-18
  0.238000005       1.93636323E-18
  0.238999993      -6.41466695E-18
  0.239999995      -1.55465883E-17
  0.240999997      -2.51409139E-17
  0.241999999      -3.48182157E-17
  0.243000001      -4.41483895E-17
  0.244000003      -5.26645514E-17
  0.245000005      -5.98803192E-17
  0.246000007      -6.53100585E-17
  0.246999994      -6.84915010E-17
  0.247999996      -6.90098852E-17
  0.248999998      -6.65227185E-17
  0.250000000      -6.07840306E-17
  0.250999987      -5.16668922E-17
  0.252000004      -3.91830063E-17
  0.252999991      -2.34980704E-17
  0.254000008      -4.94173332E-18
  0.254999995       1.59889082E-17
  0.256000012       3.86331595E-17
  0.256999999       6.21785578E-17
  0.257999986       8.56809825E-17
  0.259000003       1.08092998E-16
  0.259999990       1.28300067E-16
  0.261000007       1.45163686E-16
  0.261999995       1.57570270E-16
  0.263000011       1.64484150E-16
  0.263999999       1.65002587E-16
  0.264999986       1.58410527E-16
  0.266000003       1.44232598E-16
  0.266999990       1.22279595E-16
  0.268000007       9.26868251E-17
  0.268999994       5.59417087E-17
  0.270000011       1.28983034E-17
  0.270999998      -3.52232497E-17
  0.272000015      -8.68538320E-17
  0.273000002      -1.40109851E-16
  0.273999989      -1.92845288E-16
  0.275000006      -2.42720706E-16
  0.275999993      -2.87287582E-16
  0.277000010      -3.24085976E-16
  0.277999997      -3.50751949E-16
  0.279000014      -3.65131260E-16
  0.280000001      -3.65394529E-16
  0.280999988      -3.50148888E-16
  0.282000005      -3.18540981E-16
  0.282999992      -2.70345626E-16
  0.284000009      -2.06034915E-16
  0.284999996      -1.26822961E-16
  0.286000013      -3.46820287E-17
  0.287000000       6.76734194E-17
  0.287999988       1.76836683E-16
  0.289000005       2.88793898E-16
  0.289999992       3.99043442E-16
  0.291000009       5.02747406E-16
  0.291999996       5.94911261E-16
  0.293000013       6.70586296E-16
  0.294000000       7.25088049E-16
  0.294999987       7.54221906E-16
  0.296000004       7.54506986E-16
  0.296999991       7.23388530E-16
  0.298000008       6.59427749E-16
  0.298999995       5.62459417E-16
  0.300000012       4.33707551E-16
  0.300999999       2.75850308E-16
  0.301999986       9.30273919E-17
  0.303000003      -1.09215429E-16
  0.303999990      -3.24047145E-16
  0.305000007      -5.43537972E-16
  0.305999994      -7.58908486E-16
  0.307000011      -9.60835424E-16
  0.307999998      -1.13980618E-15
  0.308999985      -1.28650890E-15
  0.310000002      -1.39224571E-15
  0.310999990      -1.44935204E-15
  0.312000006      -1.45160420E-15
  0.312999994      -1.39459687E-15
  0.314000010      -1.27607176E-15
  0.314999998      -1.09617954E-15
  0.316000015      -8.57658129E-16
  0.317000002      -5.65913565E-16
  0.317999989      -2.28992816E-16
  0.319000006       1.42558729E-16
  0.319999993       5.35957821E-16
  0.321000010       9.36558824E-16
  0.321999997       1.32833708E-15
  0.323000014       1.69446633E-15
  0.324000001       2.01797320E-15
  0.324999988       2.28244547E-15
  0.326000005       2.47276764E-15
  0.326999992       2.57585366E-15
  0.328000009       2.58134498E-15
  0.328999996       2.48224233E-15
  0.330000013       2.27543860E-15
  0.331000000       1.96212175E-15
  0.331999987       1.54802344E-15
  0.333000004       1.04348953E-15
  0.333999991       4.63358680E-16
  0.335000008      -1.73359613E-16
  0.335999995      -8.44008298E-16
  0.337000012      -1.52299700E-15
  0.338000000      -2.18269125E-15
  0.338999987      -2.79444936E-15
  0.340000004      -3.32977228E-15
  0.340999991      -3.76152509E-15
  0.342000008      -4.06518089E-15
  0.342999995      -4.22003757E-15
  0.344000012      -4.21034921E-15
  0.344999999      -4.02632114E-15
  0.345999986      -3.66491547E-15
  0.347000003      -3.13041736E-15
  0.347999990      -2.43472548E-15
  0.349000007      -1.59733304E-15
  0.349999994      -6.44981073E-16
  0.351000011       3.89021904E-16
  0.351999998       1.46580926E-15
  0.352999985       2.54226965E-15
  0.354000002       3.57262827E-15
  0.354999989       4.51024504E-15
  0.356000006       5.30956716E-15
  0.356999993       5.92815913E-15
  0.358000010       6.32872821E-15
  0.358999997       6.48106116E-15
  0.360000014       6.36377378E-15
  0.361000001       5.96579365E-15
  0.361999989       5.28749179E-15
  0.363000005       4.34139071E-15
  0.363999993       3.15239130E-15
  0.365000010       1.75747785E-15
  0.365999997       2.04881229E-16
  0.367000014      -1.44729894E-15
  0.368000001      -3.13298704E-15
  0.368999988      -4.78049259E-15
  0.370000005      -6.31526336E-15
  0.370999992      -7.66293851E-15
  0.372000009      -8.75259050E-15
  0.372999996      -9.52002183E-15
  0.374000013      -9.91098259E-15
  0.375000000      -9.88416129E-15
  0.375999987      -9.41380813E-15
  0.377000004      -8.49185089E-15
  0.377999991      -7.12938060E-15
  0.379000008      -5.35740377E-15
  0.379999995      -3.22678429E-15
  0.381000012      -8.07322243E-16
  0.381999999       1.81404345E-15
  0.382999986       4.53588007E-15
  0.384000003       7.24570364E-15
  0.384999990       9.82411259E-15
  0.386000007       1.21494755E-14
  0.386999995       1.41030181E-14
  0.388000011       1.55741051E-14
  0.388999999       1.64655006E-14
  0.389999986       1.66983940E-14
  0.391000003       1.62169455E-14
  0.391999990       1.49921410E-14
  0.393000007       1.30247426E-14
  0.393999994       1.03471554E-14
  0.395000011       7.02406603E-15
  0.395999998       3.15175348E-15
  0.397000015      -1.14398131E-15
  0.398000002      -5.71125433E-15
  0.398999989      -1.03768456E-14
  0.400000006      -1.49521390E-14
  0.400999993      -1.92400552E-14
  0.402000010      -2.30427538E-14
  0.402999997      -2.61698266E-14
  0.404000014      -2.84466596E-14
  0.405000001      -2.97226233E-14
  0.405999988      -2.98787382E-14
  0.407000005      -2.88344652E-14
  0.407999992      -2.65532869E-14
  0.409000009      -2.30467822E-14
  0.409999996      -1.83769456E-14
  0.411000013      -1.26565459E-14
  0.412000000      -6.04741460E-15
  0.412999988       1.24337110E-15
  0.414000005       8.96937079E-15
  0.414999992       1.68525862E-14
  0.416000009       2.45929714E-14
  0.416999996       3.18793386E-14
  0.418000013       3.84012687E-14
  0.419000000       4.38616022E-14
  0.419999987       4.79890175E-14
  0.421000004       5.05501707E-14
  0.421999991       5.13608897E-14
  0.423000008       5.02959253E-14
  0.423999995       4.72967714E-14
  0.425000012       4.23771600E-14
  0.425999999       3.56258839E-14
  0.426999986       2.72067542E-14
  0.428000003       1.73555069E-14
  0.428999990       6.37371371E-15
  0.430000007      -5.38021987E-15
  0.430999994      -1.75027060E-14
  0.432000011      -2.95589121E-14
  0.432999998      -4.10985062E-14
  0.433999985      -5.16726419E-14
  0.435000002      -6.08515313E-14
  0.435999990      -6.82419209E-14
  0.437000006      -7.35037506E-14
  0.437999994      -7.63652854E-14
  0.439000010      -7.66360716E-14
  0.439999998      -7.42170607E-14
  0.441000015      -6.91074463E-14
  0.442000002      -6.14078151E-14
  0.442999989      -5.13193444E-14
  0.444000006      -3.91389768E-14
  0.444999993      -2.52506248E-14
  0.446000010      -1.01126679E-14
  0.446999997       5.75787163E-15
  0.448000014       2.18039122E-14
  0.449000001       3.74489732E-14
  0.449999988       5.21191299E-14
  0.451000005       6.52653726E-14
  0.451999992       7.63855261E-14
  0.453000009       8.50447235E-14
  0.453999996       9.08936283E-14
  0.455000013       9.36835922E-14
  0.456000000       9.32780667E-14
  0.456999987       8.96596707E-14
  0.458000004       8.29325893E-14
  0.458999991       7.33200935E-14
  0.460000008       6.11571950E-14
  0.460999995       4.68786522E-14
  0.462000012       3.10027374E-14
  0.463000000       1.41114046E-14
  0.463999987      -3.17237894E-15
  0.465000004      -2.02092405E-14
  0.465999991      -3.63689486E-14
  0.467000008      -5.10557986E-14
  0.467999995      -6.37327918E-14
  0.469000012      -7.39435639E-14
  0.469999999      -8.13311007E-14
  0.470999986      -8.56523850E-14
  0.472000003      -8.67883849E-14
  0.472999990      -8.47488177E-14
  0.474000007      -7.96714989E-14
  0.474999994      -7.18162576E-14
  0.476000011      -6.15535997E-14
  0.476999998      -4.93486410E-14
  0.477999985      -3.57409245E-14
  0.479000002      -2.13210136E-14
  0.479999989      -6.70486294E-15
  0.481000006       7.49291952E-15
  0.481999993       2.06857270E-14
  0.483000010       3.23403346E-14
  0.483999997       4.19999254E-14
  0.485000014       4.93036262E-14
  0.486000001       5.40017521E-14
  0.486999989       5.59660350E-14
  0.488000005       5.51943270E-14
  0.488999993       5.18095935E-14
  0.490000010       4.60532491E-14
  0.490999997       3.82730753E-14
  0.492000014       2.89063071E-14
  0.493000001       1.84586961E-14
  0.493999988       7.48041393E-15
  0.495000005      -3.45998941E-15
  0.495999992      -1.38023765E-14
  0.497000009      -2.30213458E-14
  0.497999996      -3.06508359E-14
  0.499000013      -3.63058481E-14
  0.500000000      -3.97002445E-14
  0.500999987      -4.06598278E-14
  0.501999974      -3.91300727E-14
  0.503000021      -3.51781118E-14
  0.504000008      -2.89889132E-14
  0.504999995      -2.08558756E-14
  0.505999982      -1.11662456E-14
  0.507000029      -3.82140608E-16
  0.508000016       1.09819685E-14
  0.509000003       2.23841738E-14
  0.509999990       3.32811205E-14
  0.510999978       4.31539841E-14
  0.512000024       5.15330441E-14
  0.513000011       5.80195885E-14
  0.513999999       6.23042335E-14
  0.514999986       6.41806554E-14
  0.515999973       6.35540747E-14
  0.517000020       6.04441153E-14
  0.518000007       5.49819691E-14
  0.518999994       4.74020305E-14
  0.519999981       3.80284522E-14
  0.521000028       2.72573796E-14
  0.522000015       1.55357701E-14
  0.523000002       3.33805054E-15
  0.523999989      -8.85816553E-15
  0.524999976      -2.05960703E-14
  0.526000023      -3.14620224E-14
  0.527000010      -4.11050724E-14
  0.527999997      -4.92525434E-14
  0.528999984      -5.57208732E-14
  0.529999971      -6.04211844E-14
  0.531000018      -6.33591893E-14
  0.532000005      -6.46295287E-14
  0.532999992      -6.44048820E-14
  0.533999979      -6.29204534E-14
  0.535000026      -6.04547947E-14
  0.536000013      -5.73080876E-14
  0.537000000      -5.37791891E-14
  0.537999988      -5.01429071E-14
  0.538999975      -4.66288690E-14
  0.540000021      -4.34033472E-14
  0.541000009      -4.05553344E-14
  0.541999996      -3.80878089E-14
  0.542999983      -3.59149593E-14
  0.544000030      -3.38657630E-14
  0.545000017      -3.16939434E-14
  0.546000004      -2.90939893E-14
  0.546999991      -2.57225509E-14
  0.547999978      -2.12240131E-14
  0.549000025      -1.52590410E-14
  0.550000012      -7.53452917E-15
  0.550999999       2.16714057E-15
  0.551999986       1.39609343E-14
  0.552999973       2.78361759E-14
  0.554000020       4.36393340E-14
  0.555000007       6.10638791E-14
  0.555999994       7.96486426E-14
  0.556999981       9.87850548E-14
  0.558000028       1.17733731E-13
  0.559000015       1.35650117E-13
  0.560000002       1.51618355E-13
  0.560999990       1.64692316E-13
  0.561999977       1.73941983E-13
  0.563000023       1.78502991E-13
  0.564000010       1.77627268E-13
  0.564999998       1.70731878E-13
  0.565999985       1.57443462E-13
  0.566999972       1.37635820E-13
  0.568000019       1.11458206E-13
  0.569000006       7.93522894E-14
  0.569999993       4.20559549E-14
  0.570999980       5.93256794E-16
  0.572000027      -4.37501462E-14
  0.573000014      -8.94656799E-14
  0.574000001      -1.34873720E-13
  0.574999988      -1.78186933E-13
  0.575999975      -2.17582815E-13
  0.577000022      -2.51282393E-13
  0.578000009      -2.77631840E-13
  0.578999996      -2.95183257E-13
  0.579999983      -3.02770938E-13
  0.580999970      -2.99579155E-13
  0.582000017      -2.85197891E-13
  0.583000004      -2.59663439E-13
  0.583999991      -2.23481146E-13
  0.584999979      -1.77628406E-13
  0.586000025      -1.23536692E-13
  0.587000012      -6.30523669E-14
  0.588000000       1.62266102E-15
  0.588999987       6.80088513E-14
  0.589999974       1.33443075E-13
  0.591000021       1.95184973E-13
  0.592000008       2.50531556E-13
  0.592999995       2.96935355E-13
  0.593999982       3.32120887E-13
  0.595000029       3.54194240E-13
  0.596000016       3.61740721E-13
  0.597000003       3.53905571E-13
  0.597999990       3.30453872E-13
  0.598999977       2.91805859E-13
  0.600000024       2.39045220E-13
  0.601000011       1.73899401E-13
  0.601999998       9.86909800E-14
  0.602999985       1.62618569E-14
  0.603999972      -7.01275518E-14
  0.605000019      -1.56920836E-13
  0.606000006      -2.40405243E-13
  0.606999993      -3.16862639E-13
  0.607999980      -3.82726376E-13
  0.609000027      -4.34736719E-13
  0.610000014      -4.70088757E-13
  0.611000001      -4.86565920E-13
  0.611999989      -4.82653143E-13
  0.612999976      -4.57624173E-13
  0.614000022      -4.11598625E-13
  0.615000010      -3.45565617E-13
  0.615999997      -2.61371708E-13
  0.616999984      -1.61673192E-13
  0.617999971      -4.98533709E-14
  0.619000018       7.00924711E-14
  0.620000005       1.93700226E-13
  0.620999992       3.16203335E-13
  0.621999979       4.32715983E-13
  0.623000026       5.38425424E-13
  0.624000013       6.28786465E-13
  0.625000000       6.99709659E-13
  0.625999987       7.47735370E-13
  0.626999974       7.70186595E-13
  0.628000021       7.65293753E-13
  0.629000008       7.32285760E-13
  0.629999995       6.71443153E-13
  0.630999982       5.84110614E-13
  0.632000029       4.72667586E-13
  0.633000016       3.40457534E-13
  0.634000003       1.91678054E-13
  0.634999990       3.12360475E-14
  0.635999978      -1.35427070E-13
  0.637000024      -3.02533443E-13
  0.638000011      -4.64182512E-13
  0.638999999      -6.14572087E-13
  0.639999986      -7.48217623E-13
  0.640999973      -8.60161877E-13
  0.642000020      -9.46165997E-13
  0.643000007      -1.00287443E-12
  0.643999994      -1.02794737E-12
  0.644999981      -1.02015521E-12
  0.646000028      -9.79430729E-13
  0.647000015      -9.06877546E-13
  0.648000002      -8.04734209E-13
  0.648999989      -6.76295066E-13
  0.649999976      -5.25791162E-13
  0.651000023      -3.58235495E-13
  0.652000010      -1.79239273E-13
  0.652999997       5.19414156E-15
  0.653999984       1.88889459E-13
  0.654999971       3.65725218E-13
  0.656000018       5.29856215E-13
  0.657000005       6.75924486E-13
  0.657999992       7.99250260E-13
  0.658999979       8.95996114E-13
  0.660000026       9.63298018E-13
  0.661000013       9.99358474E-13
  0.662000000       1.00349904E-12
  0.662999988       9.76170100E-13
  0.663999975       9.18917828E-13
  0.665000021       8.34311407E-13
  0.666000009       7.25832426E-13
  0.666999996       5.97731500E-13
  0.667999983       4.54858915E-13
  0.669000030       3.02475520E-13
  0.670000017       1.46050842E-13
  0.671000004      -8.94205906E-15
  0.671999991      -1.57228180E-13
  0.672999978      -2.93921029E-13
  0.674000025      -4.14694158E-13
  0.675000012      -5.15928175E-13
  0.675999999      -5.94827464E-13
  0.676999986      -6.49503238E-13
  0.677999973      -6.79020262E-13
  0.679000020      -6.83405860E-13
  0.680000007      -6.63622260E-13
  0.680999994      -6.21503554E-13
  0.681999981      -5.59660825E-13
  0.683000028      -4.81359527E-13
  0.684000015      -3.90374609E-13
  0.685000002      -2.90829643E-13
  0.685999990      -1.87026162E-13
  0.686999977      -8.32702505E-14
  0.688000023       1.62966598E-14
  0.689000010       1.07856629E-13
  0.689999998       1.88057550E-13
  0.690999985       2.54133628E-13
  0.691999972       3.04000206E-13
  0.693000019       3.36319162E-13
  0.694000006       3.50533323E-13
  0.694999993       3.46869235E-13
  0.695999980       3.26308208E-13
  0.697000027       2.90527747E-13
  0.698000014       2.41816333E-13
  0.699000001       1.82964863E-13
  0.699999988       1.17139967E-13
  0.700999975       4.77437236E-14
  0.702000022      -2.17340726E-14
  0.703000009      -8.78649502E-14
  0.703999996      -1.47426708E-13
  0.704999983      -1.97538410E-13
  0.705999970      -2.35780416E-13
  0.707000017      -2.60294282E-13
  0.708000004      -2.69859357E-13
  0.708999991      -2.63943056E-13
  0.709999979      -2.42722482E-13
  0.711000025      -2.07077275E-13
  0.712000012      -1.58553793E-13
  0.713000000      -9.93020024E-14
  0.713999987      -3.19875860E-14
  0.714999974       4.03173080E-14
  0.716000021       1.14260354E-13
  0.717000008       1.86347736E-13
  0.717999995       2.53089514E-13
  0.718999982       3.11146074E-13
  0.720000029       3.57470401E-13
  0.721000016       3.89439864E-13
  0.722000003       4.04972795E-13
  0.722999990       4.02624928E-13
  0.723999977       3.81661553E-13
  0.725000024       3.42102757E-13
  0.726000011       2.84739138E-13
  0.726999998       2.11117148E-13
  0.727999985       1.23494327E-13
  0.728999972       2.47655663E-14
  0.730000019      -8.16368796E-14
  0.731000006      -1.91866488E-13
  0.731999993      -3.01804236E-13
  0.732999980      -4.07213082E-13
  0.734000027      -5.03900470E-13
  0.735000014      -5.87881902E-13
  0.736000001      -6.55538829E-13
  0.736999989      -7.03765767E-13
  0.737999976      -7.30099195E-13
  0.739000022      -7.32824066E-13
  0.740000010      -7.11053124E-13
  0.740999997      -6.64774279E-13
  0.741999984      -5.94865086E-13
  0.742999971      -5.03072681E-13
  0.744000018      -3.91959306E-13
  0.745000005      -2.64814863E-13
  0.745999992      -1.25539783E-13
  0.746999979       2.14973032E-14
  0.748000026       1.71622590E-13
  0.749000013       3.20033523E-13
  0.750000000       4.61982557E-13
  0.750999987       5.92959926E-13
  0.751999974       7.08868673E-13
  0.753000021       8.06184329E-13
  0.754000008       8.82092034E-13
  0.754999995       9.34595934E-13
  0.755999982       9.62595563E-13
  0.757000029       9.65924606E-13
  0.758000016       9.45351219E-13
  0.759000003       9.02538949E-13
  0.759999990       8.39969153E-13
  0.760999978       7.60827761E-13
  0.762000024       6.68860854E-13
  0.763000011       5.68205639E-13
  0.763999999       4.63201797E-13
  0.764999986       3.58193537E-13
  0.765999973       2.57329531E-13
  0.767000020       1.64369684E-13
  0.768000007       8.25077718E-14
  0.768999994       1.42175835E-14
  0.769999981      -3.88699218E-14
  0.771000028      -7.60522152E-14
  0.772000015      -9.75993578E-14
  0.773000002      -1.04754550E-13
  0.773999989      -9.96889677E-14
  0.774999976      -8.54133252E-14
  0.776000023      -6.56483060E-14
  0.777000010      -4.46596969E-14
  0.777999997      -2.70648101E-14
  0.778999984      -1.76181633E-14
  0.779999971      -2.09857309E-14
  0.781000018      -4.15165745E-14
  0.782000005      -8.30252547E-14
  0.782999992      -1.48591277E-13
  0.783999979      -2.40387408E-13
  0.785000026      -3.59544940E-13
  0.786000013      -5.06060363E-13
  0.787000000      -6.78752735E-13
  0.787999988      -8.75271698E-13
  0.788999975      -1.09215675E-12
  0.790000021      -1.32494796E-12
  0.791000009      -1.56834420E-12
  0.791999996      -1.81640055E-12
  0.792999983      -2.06275990E-12
  0.794000030      -2.30090816E-12
  0.795000017      -2.52444224E-12
  0.796000004      -2.72734006E-12
  0.796999991      -2.90421962E-12
  0.797999978      -3.05057715E-12
  0.799000025      -3.16299417E-12
  0.800000012      -3.23930162E-12
  0.800999999      -3.27869416E-12
  0.801999986      -3.28179432E-12
  0.802999973      -3.25065582E-12
  0.804000020      -3.18870689E-12
  0.805000007      -3.10063975E-12
  0.805999994      -2.99224664E-12
  0.806999981      -2.87020863E-12
  0.808000028      -2.74184841E-12
  0.809000015      -2.61485733E-12
  0.810000002      -2.49700412E-12
  0.810999990      -2.39583852E-12
  0.811999977      -2.31841022E-12
  0.813000023      -2.27100630E-12
  0.814000010      -2.25891636E-12
  0.814999998      -2.28624476E-12
  0.815999985      -2.35577096E-12
  0.816999972      -2.46886387E-12
  0.818000019      -2.62545606E-12
  0.819000006      -2.82407951E-12
  0.819999993      -3.06195369E-12
  0.820999980      -3.33512861E-12
  0.822000027      -3.63867356E-12
  0.823000014      -3.96690406E-12
  0.824000001      -4.31363322E-12
  0.824999988      -4.67243692E-12
  0.825999975      -5.03692574E-12
  0.827000022      -5.40100473E-12
  0.828000009      -5.75911411E-12
  0.828999996      -6.10643740E-12
  0.829999983      -6.43906976E-12
  0.830999970      -6.75413675E-12
  0.832000017      -7.04986720E-12
  0.833000004      -7.32560713E-12
  0.833999991      -7.58177982E-12
  0.834999979      -7.81979689E-12
  0.836000025      -8.04191522E-12
  0.837000012      -8.25107170E-12
  0.838000000      -8.45067766E-12
  0.838999987      -8.64439076E-12
  0.839999974      -8.83588775E-12
  0.841000021      -9.02863895E-12
  0.842000008      -9.22569920E-12
  0.842999995      -9.42952313E-12
  0.843999982      -9.64181252E-12
  0.845000029      -9.86340783E-12
  0.846000016      -1.00942388E-11
  0.847000003      -1.03333106E-11
  0.847999990      -1.05787453E-11
  0.848999977      -1.08278837E-11
  0.850000024      -1.10774202E-11
  0.851000011      -1.13235836E-11
  0.851999998      -1.15623457E-11
  0.852999985      -1.17896535E-11
  0.853999972      -1.20016636E-11
  0.855000019      -1.21949820E-11
  0.856000006      -1.23668879E-11