   0.00000000       0.00000000    
   1.00000005E-03   0.00000000    
   2.00000009E-03   0.00000000    
   3.00000003E-03   0.00000000    
   4.00000019E-03   0.00000000    
   4.99999989E-03   0.00000000    
   6.00000005E-03   0.00000000    
   7.00000022E-03   0.00000000    
   8.00000038E-03   0.00000000    
   8.99999961E-03   0.00000000    
   9.99999978E-03   0.00000000    
   1.09999999E-02   0.00000000    
   1.20000001E-02   0.00000000    
   1.30000003E-02  -3.83196477E-37
   1.40000004E-02  -5.13111553E-37
   1.49999997E-02   1.90388938E-36
   1.60000008E-02   1.37750891E-35
   1.70000009E-02   5.14290660E-35
   1.79999992E-02   1.43274739E-34
   1.89999994E-02   3.40667263E-34
   1.99999996E-02   7.14374687E-34
   2.09999997E-02   1.31165260E-33
   2.19999999E-02   2.00992471E-33
   2.30000000E-02   2.05516361E-33
   2.40000002E-02  -9.29258406E-34
   2.50000004E-02  -1.29770903E-32
   2.60000005E-02  -4.77348390E-32
   2.70000007E-02  -1.33437405E-31
   2.80000009E-02  -3.24786150E-31
   2.89999992E-02  -7.22165472E-31
   2.99999993E-02  -1.50085059E-30
   3.09999995E-02  -2.95306750E-30
   3.20000015E-02  -5.54548920E-30
   3.29999998E-02  -9.99328711E-30
   3.40000018E-02  -1.73482338E-29
   3.50000001E-02  -2.90927577E-29
   3.59999985E-02  -4.72235615E-29
   3.70000005E-02  -7.42963948E-29
   3.79999988E-02  -1.13388307E-28
   3.90000008E-02  -1.67915861E-28
   3.99999991E-02  -2.41229009E-28
   4.10000011E-02  -3.35884084E-28
   4.19999994E-02  -4.52489826E-28
   4.30000015E-02  -5.88025364E-28
   4.39999998E-02  -7.33555805E-28
   4.50000018E-02  -8.71329803E-28
   4.60000001E-02  -9.71344116E-28
   4.69999984E-02  -9.87612157E-28
   4.80000004E-02  -8.54582013E-28
   4.89999987E-02  -4.84408118E-28
   5.00000007E-02   2.33904529E-28
   5.09999990E-02   1.43214077E-27
   5.20000011E-02   3.25564090E-27
   5.29999994E-02   5.84929653E-27
   5.40000014E-02   9.33479447E-27
   5.49999997E-02   1.37772847E-26
   5.60000017E-02   1.91401737E-26
   5.70000000E-02   2.52277271E-26
   5.79999983E-02   3.16167192E-26
   5.90000004E-02   3.75805539E-26
   5.99999987E-02   4.20122142E-26
   6.10000007E-02   4.33558108E-26
   6.19999990E-02   3.95605054E-26
   6.30000010E-02   2.80746814E-26
   6.40000030E-02   5.90210014E-27
   6.49999976E-02  -3.02552871E-26
   6.59999996E-02  -8.37418745E-26
   6.70000017E-02  -1.57555565E-25
   6.80000037E-02  -2.53797606E-25
   6.89999983E-02  -3.72954528E-25
   7.00000003E-02  -5.13016116E-25
   7.10000023E-02  -6.68454501E-25
   7.19999969E-02  -8.29115984E-25
   7.29999989E-02  -9.79110194E-25
   7.40000010E-02  -1.09581763E-24
   7.50000030E-02  -1.14917786E-24
   7.59999976E-02  -1.10145660E-24
   7.69999996E-02  -9.07724396E-25
   7.80000016E-02  -5.17301406E-25
   7.90000036E-02   1.23574790E-25
   7.99999982E-02   1.06762058E-24
   8.10000002E-02   2.36073252E-24
   8.20000023E-02   4.03447646E-24
   8.29999968E-02   6.09688348E-24
   8.39999989E-02   8.52177248E-24
   8.50000009E-02   1.12370546E-23
   8.60000029E-02   1.41127342E-23
   8.69999975E-02   1.69496090E-23
   8.79999995E-02   1.94699975E-23
   8.90000015E-02   2.13120776E-23
   9.00000036E-02   2.20296934E-23
   9.09999982E-02   2.10996137E-23
   9.20000002E-02   1.79382757E-23
   9.30000022E-02   1.19299127E-23
   9.39999968E-02   2.46757900E-24
   9.49999988E-02  -1.09919942E-23
   9.60000008E-02  -2.88596526E-23
   9.70000029E-02  -5.13323214E-23
   9.79999974E-02  -7.83012732E-23
   9.89999995E-02  -1.09254484E-22
  0.100000001      -1.43179024E-22
  0.101000004      -1.78471626E-22
  0.101999998      -2.12867060E-22
  0.103000000      -2.43395876E-22
  0.104000002      -2.66383838E-22
  0.104999997      -2.77506070E-22
  0.105999999      -2.71908363E-22
  0.107000001      -2.44406602E-22
  0.108000003      -1.89772103E-22
  0.108999997      -1.03106840E-22
  0.109999999       1.96937610E-23
  0.111000001       1.81399815E-22
  0.112000003       3.82845532E-22
  0.112999998       6.22294680E-22
  0.114000000       8.94810706E-22
  0.115000002       1.19167696E-21
  0.115999997       1.49992523E-21
  0.116999999       1.80203336E-21
  0.118000001       2.07585963E-21
  0.119000003       2.29488134E-21
  0.119999997       2.42880059E-21
  0.120999999       2.44456953E-21
  0.122000001       2.30787228E-21
  0.123000003       1.98507696E-21
  0.123999998       1.44564150E-21
  0.125000000       6.64923511E-22
  0.126000002      -3.72697322E-22
  0.127000004      -1.67051811E-21
  0.128000006      -3.21621070E-21
  0.128999993      -4.97873629E-21
  0.129999995      -6.90573350E-21
  0.130999997      -8.92165909E-21
  0.131999999      -1.09269735E-20
  0.133000001      -1.27986700E-20
  0.134000003      -1.43924031E-20
  0.135000005      -1.55464444E-20
  0.136000007      -1.60876079E-20
  0.136999995      -1.58391969E-20
  0.137999997      -1.46309073E-20
  0.138999999      -1.23104759E-20
  0.140000001      -8.75670602E-21
  0.141000003      -3.89335093E-21
  0.142000005       2.29683762E-21
  0.143000007       9.75872548E-21
  0.143999994       1.83530375E-20
  0.144999996       2.78472647E-20
  0.145999998       3.79103143E-20
  0.147000000       4.81119328E-20
  0.148000002       5.79278848E-20
  0.149000004       6.67515884E-20
  0.150000006       7.39127883E-20
  0.150999993       7.87033595E-20
  0.151999995       8.04100270E-20
  0.152999997       7.83532489E-20
  0.153999999       7.19310832E-20
  0.155000001       6.06662339E-20
  0.156000003       4.42541014E-20
  0.157000005       2.26090595E-20
  0.158000007      -4.09392607E-21
  0.158999994      -3.53856977E-20
  0.159999996      -7.04805316E-20
  0.160999998      -1.08268100E-19
  0.162000000      -1.47322521E-19
  0.163000003      -1.85930595E-19
  0.164000005      -2.22140491E-19
  0.165000007      -2.53831124E-19
  0.165999994      -2.78801045E-19
  0.166999996      -2.94874663E-19
  0.167999998      -3.00021794E-19
  0.169000000      -2.92485352E-19
  0.170000002      -2.70910698E-19
  0.171000004      -2.34469101E-19
  0.172000006      -1.82966988E-19
  0.172999993      -1.16932604E-19
  0.173999995      -3.76716275E-20
  0.174999997       5.27157939E-20
  0.175999999       1.51362536E-19
  0.177000001       2.54710547E-19
  0.178000003       3.58637002E-19
  0.179000005       4.58628740E-19
  0.180000007       5.49999834E-19
  0.180999994       6.28143638E-19
  0.181999996       6.88806738E-19
  0.182999998       7.28369597E-19
  0.184000000       7.44115239E-19
  0.185000002       7.34465763E-19
  0.186000004       6.99166089E-19
  0.187000006       6.39394587E-19
  0.187999994       5.57782466E-19
  0.188999996       4.58327387E-19
  0.189999998       3.46192431E-19
  0.191000000       2.27388487E-19
  0.192000002       1.08346146E-19
  0.193000004      -4.60798732E-21
  0.194000006      -1.05845230E-19
  0.194999993      -1.91064995E-19
  0.195999995      -2.57918069E-19
  0.196999997      -3.06572936E-19
  0.197999999      -3.40170039E-19
  0.199000001      -3.65107183E-19
  0.200000003      -3.91101152E-19
  0.201000005      -4.30976402E-19
  0.202000007      -5.00142505E-19
  0.202999994      -6.15737273E-19
  0.203999996      -7.95431042E-19
  0.204999998      -1.05591187E-18
  0.206000000      -1.41109754E-18
  0.207000002      -1.87014742E-18
  0.208000004      -2.43537709E-18
  0.209000006      -3.10020242E-18
  0.209999993      -3.84726542E-18
  0.210999995      -4.64690919E-18
  0.211999997      -5.45618217E-18
  0.213000000      -6.21854449E-18
  0.214000002      -6.86444475E-18
  0.215000004      -7.31290527E-18
  0.216000006      -7.47422038E-18
  0.216999993      -7.25381480E-18
  0.217999995      -6.55725097E-18
  0.218999997      -5.29630015E-18
  0.219999999      -3.39590191E-18
  0.221000001      -8.01763317E-19
  0.222000003       2.51174634E-18
  0.223000005       6.53382521E-18
  0.224000007       1.12100799E-17
  0.224999994       1.64365238E-17
  0.225999996       2.20552871E-17
  0.226999998       2.78526204E-17
  0.228000000       3.35597134E-17
  0.229000002       3.88567861E-17
  0.230000004       4.33808156E-17
  0.231000006       4.67371075E-17
  0.231999993       4.85147153E-17
  0.232999995       4.83055346E-17
  0.233999997       4.57266468E-17
  0.234999999       4.04452244E-17
  0.236000001       3.22050794E-17
  0.237000003       2.08536964E-17
  0.238000005       6.36835435E-18
  0.238999993      -1.11201703E-17
  0.239999995      -3.13080351E-17
  0.240999997      -5.37045193E-17
  0.241999999      -7.76256727E-17
  0.243000001      -1.02196841E-16
  0.244000003      -1.26365404E-16
  0.245000005      -1.48924565E-16
  0.246000007      -1.68548624E-16
  0.246999994      -1.83839726E-16
  0.247999996      -1.93385311E-16
  0.248999998      -1.95824938E-16
  0.250000000      -1.89924494E-16
  0.250999987      -1.74655044E-16
  0.252000004      -1.49273053E-16
  0.252999991      -1.13398111E-16
  0.254000008      -6.70840036E-17
  0.254999995      -1.08785566E-17
  0.256000012       5.41321684E-17
  0.256999999       1.26299680E-16
  0.257999986       2.03412779E-16
  0.259000003       2.82724245E-16
  0.259999990       3.61007030E-16
  0.261000007       4.34640769E-16
  0.261999995       4.99728528E-16
  0.263000011       5.52241818E-16
  0.263999999       5.88190690E-16
  0.264999986       6.03813630E-16
  0.266000003       5.95780582E-16
  0.266999990       5.61401050E-16
  0.268000007       4.98827920E-16
  0.268999994       4.07246612E-16
  0.270000011       2.87038872E-16
  0.270999998       1.39910361E-16
  0.272000015      -3.10283190E-17
  0.273000002      -2.21236456E-16
  0.273999989      -4.24781491E-16
  0.275000006      -6.34446365E-16
  0.275999993      -8.41908451E-16
  0.277000010      -1.03798996E-15
  0.277999997      -1.21297574E-15
  0.279000014      -1.35699167E-15
  0.280000001      -1.46043102E-15
  0.280999988      -1.51441645E-15
  0.282000005      -1.51127724E-15
  0.282999992      -1.44502307E-15
  0.284000009      -1.31179103E-15
  0.284999996      -1.11024240E-15
  0.286000013      -8.41885846E-16
  0.287000000      -5.11303921E-16
  0.287999988      -1.26262993E-16
  0.289000005       3.02310347E-16
  0.289999992       7.60499108E-16
  0.291000009       1.23171794E-15
  0.291999996       1.69718774E-15
  0.293000013       2.13655696E-15
  0.294000000       2.52865254E-15
  0.294999987       2.85234152E-15
  0.296000004       3.08747215E-15
  0.296999991       3.21585990E-15
  0.298000008       3.22227617E-15
  0.298999995       3.09539593E-15
  0.300000012       2.82865657E-15
  0.300999999       2.42098068E-15
  0.301999986       1.87731724E-15
  0.303000003       1.20896060E-15
  0.303999990       4.33612709E-16
  0.305000007      -4.24837210E-16
  0.305999994      -1.33682911E-15
  0.307000011      -2.26794850E-15
  0.307999998      -3.18002977E-15
  0.308999985      -4.03252184E-15
  0.310000002      -4.78407597E-15
  0.310999990      -5.39430180E-15
  0.312000006      -5.82562834E-15
  0.312999994      -6.04519198E-15
  0.314000010      -6.02666695E-15
  0.314999998      -5.75195468E-15
  0.316000015      -5.21264203E-15
  0.317000002      -4.41114388E-15
  0.317999989      -3.36145491E-15
  0.319000006      -2.08944372E-15
  0.319999993      -6.32642450E-16
  0.321000010       9.60498304E-16
  0.321999997       2.63189675E-15
  0.323000014       4.31565320E-15
  0.324000001       5.94034709E-15
  0.324999988       7.43175188E-15
  0.326000005       8.71587331E-15
  0.326999992       9.72220521E-15
  0.328000009       1.03870685E-14
  0.328999996       1.06568891E-14
  0.330000013       1.04912662E-14
  0.331000000       9.86568157E-15
  0.331999987       8.77369856E-15
  0.333000004       7.22851903E-15
  0.333999991       5.26378757E-15
  0.335000008       2.93355123E-15
  0.335999995       3.11323572E-16
  0.337000012      -2.51176906E-15
  0.338000000      -5.42973615E-15
  0.338999987      -8.32530303E-15
  0.340000004      -1.10742206E-14
  0.340999991      -1.35501572E-14
  0.342000008      -1.56299974E-14
  0.342999995      -1.71993411E-14
  0.344000012      -1.81579673E-14
  0.344999999      -1.84250232E-14
  0.345999986      -1.79436933E-14
  0.347000003      -1.66851176E-14
  0.347999990      -1.46513339E-14
  0.349000007      -1.18770596E-14
  0.349999994      -8.43016656E-15
  0.351000011      -4.41076610E-15
  0.351999998       5.11567666E-17
  0.352999985       4.79951823E-15
  0.354000002       9.65724540E-15
  0.354999989       1.44325622E-14
  0.356000006       1.89262465E-14
  0.356999993       2.29395936E-14
  0.358000010       2.62827751E-14
  0.358999997       2.87832434E-14
  0.360000014       3.02938386E-14
  0.361000001       3.07002145E-14
  0.361999989       2.99272360E-14
  0.363000005       2.79440150E-14
  0.363999993       2.47673145E-14
  0.365000010       2.04630844E-14
  0.365999997       1.51459943E-14
  0.367000014       8.97687804E-15
  0.368000001       2.15811268E-15
  0.368999988      -5.07294300E-15
  0.370000005      -1.24522703E-14
  0.370999992      -1.96989709E-14
  0.372000009      -2.65261496E-14
  0.372999996      -3.26524662E-14
  0.374000013      -3.78139021E-14
  0.375000000      -4.17752109E-14
  0.375999987      -4.43405858E-14
  0.377000004      -4.53630291E-14
  0.377999991      -4.47519829E-14
  0.379000008      -4.24788344E-14
  0.379999995      -3.85799824E-14
  0.381000012      -3.31572741E-14
  0.381999999      -2.63756793E-14
  0.382999986      -1.84582506E-14
  0.384000003      -9.67849153E-15
  0.384999990      -3.50391272E-16
  0.386000007       9.18349564E-15
  0.386999995       1.85654765E-14
  0.388000011       2.74370946E-14
  0.388999999       3.54538515E-14
  0.389999986       4.22996599E-14
  0.391000003       4.77003623E-14
  0.391999990       5.14357369E-14
  0.393000007       5.33494113E-14
  0.393999994       5.33562215E-14
  0.395000011       5.14466501E-14
  0.395999998       4.76880735E-14
  0.397000015       4.22227323E-14
  0.398000002       3.52624593E-14
  0.398999989       2.70803379E-14
  0.400000006       1.79996263E-14
  0.400999993       8.38039151E-15
  0.402000010      -1.39555454E-15
  0.402999997      -1.09407993E-14
  0.404000014      -1.98788214E-14
  0.405000001      -2.78600893E-14
  0.405999988      -3.45770674E-14
  0.407000005      -3.97774160E-14
  0.407999992      -4.32747947E-14
  0.409000009      -4.49567650E-14
  0.409999996      -4.47894082E-14
  0.411000013      -4.28184506E-14
  0.412000000      -3.91668272E-14
  0.412999988      -3.40287897E-14
  0.414000005      -2.76608333E-14
  0.414999992      -2.03698549E-14
  0.416000009      -1.24990994E-14
  0.416999996      -4.41255207E-15
  0.418000013       3.52148400E-15
  0.419000000       1.09468649E-14
  0.419999987       1.75353523E-14
  0.421000004       2.30008985E-14
  0.421999991       2.71118001E-14
  0.423000008       2.97001803E-14
  0.423999995       3.06683491E-14
  0.425000012       2.99918307E-14
  0.425999999       2.77188974E-14
  0.426999986       2.39667515E-14
  0.428000003       1.89145896E-14
  0.428999990       1.27939524E-14
  0.430000007       5.87691237E-15
  0.430999994      -1.53723901E-15
  0.432000011      -9.13609229E-15
  0.432999998      -1.66082510E-14
  0.433999985      -2.36567561E-14
  0.435000002      -3.00111024E-14
  0.435999990      -3.54372632E-14
  0.437000006      -3.97452423E-14
  0.437999994      -4.27938324E-14
  0.439000010      -4.44924520E-14
  0.439999998      -4.48000842E-14
  0.441000015      -4.37215334E-14
  0.442000002      -4.13013807E-14
  0.442999989      -3.76161843E-14
  0.444000006      -3.27655790E-14
  0.444999993      -2.68629723E-14
  0.446000010      -2.00266016E-14
  0.446999997      -1.23716836E-14
  0.448000014      -4.00432073E-15
  0.449000001       4.98227490E-15
  0.449999988       1.45088629E-14
  0.451000005       2.45083478E-14
  0.451999992       3.49210678E-14
  0.453000009       4.56874122E-14
  0.453999996       5.67382479E-14
  0.455000013       6.79838266E-14
  0.456000000       7.93019825E-14
  0.456999987       9.05266666E-14
  0.458000004       1.01437820E-13
  0.458999991       1.11753685E-13
  0.460000008       1.21126592E-13
  0.460999995       1.29143156E-13
  0.462000012       1.35329546E-13
  0.463000000       1.39162404E-13
  0.463999987       1.40085507E-13
  0.465000004       1.37532008E-13
  0.465999991       1.30951809E-13
  0.467000008       1.19843087E-13
  0.467999995       1.03786805E-13
  0.469000012       8.24825505E-14
  0.469999999       5.57840449E-14
  0.470999986       2.37321962E-14
  0.472000003      -1.34163107E-14
  0.472999990      -5.51669238E-14
  0.474000007      -1.00773610E-13
  0.474999994      -1.49235347E-13
  0.476000011      -1.99304115E-13
  0.476999998      -2.49505223E-13
  0.477999985      -2.98170397E-13
  0.479000002      -3.43483326E-13
  0.479999989      -3.83536844E-13
  0.481000006      -4.16400150E-13
  0.481999993      -4.40194186E-13
  0.483000010      -4.53172222E-13
  0.483999997      -4.53802686E-13
  0.485000014      -4.40850590E-13
  0.486000001      -4.13454047E-13
  0.486999989      -3.71191847E-13
  0.488000005      -3.14138553E-13
  0.488999993      -2.42903733E-13
  0.490000010      -1.58652483E-13
  0.490999997      -6.31048490E-14
  0.492000014       4.14872570E-14
  0.493000001       1.52386228E-13
  0.493999988       2.66437751E-13
  0.495000005       3.80161045E-13
  0.495999992       4.89858100E-13
  0.497000009       5.91738247E-13
  0.497999996       6.82054402E-13
  0.499000013       7.57245178E-13
  0.500000000       8.14077917E-13
  0.500999987       8.49786821E-13
  0.501999974       8.62199906E-13
  0.503000021       8.49849054E-13
  0.504000008       8.12057940E-13
  0.504999995       7.49003344E-13
  0.505999982       6.61745723E-13
  0.507000029       5.52226505E-13
  0.508000016       4.23230922E-13
  0.509000003       2.78316324E-13
  0.509999990       1.21707657E-13
  0.510999978      -4.18372273E-14
  0.512000024      -2.07187932E-13
  0.513000011      -3.69021762E-13
  0.513999999      -5.22017705E-13
  0.514999986      -6.61056062E-13
  0.515999973      -7.81416273E-13
  0.517000020      -8.78964870E-13
  0.518000007      -9.50324780E-13
  0.518999994      -9.93019686E-13
  0.519999981      -1.00558548E-12
  0.521000028      -9.87644428E-13
  0.522000015      -9.39937689E-13
  0.523000002      -8.64313178E-13
  0.523999989      -7.63668751E-13
  0.524999976      -6.41851969E-13
  0.526000023      -5.03519318E-13
  0.527000010      -3.53959781E-13
  0.527999997      -1.98889380E-13
  0.528999984      -4.42246879E-14
  0.529999971       1.04155766E-13
  0.531000018       2.40652469E-13
  0.532000005       3.60178277E-13
  0.532999992       4.58374116E-13
  0.533999979       5.31797642E-13
  0.535000026       5.78076161E-13
  0.536000013       5.96017213E-13
  0.537000000       5.85670943E-13
  0.537999988       5.48340561E-13
  0.538999975       4.86539736E-13
  0.540000021       4.03897917E-13
  0.541000009       3.05016239E-13
  0.541999996       1.95279367E-13
  0.542999983       8.06305435E-14
  0.544000030      -3.26813128E-14
  0.545000017      -1.38372359E-13
  0.546000004      -2.30401066E-13
  0.546999991      -3.03240560E-13
  0.547999978      -3.52134093E-13
  0.549000025      -3.73322955E-13
  0.550000012      -3.64236419E-13
  0.550999999      -3.23635080E-13
  0.551999986      -2.51700733E-13
  0.552999973      -1.50068190E-13
  0.554000020      -2.17965430E-14
  0.555000007       1.28719843E-13
  0.555999994       2.95898017E-13
  0.556999981       4.73165561E-13
  0.558000028       6.53204975E-13
  0.559000015       8.28233695E-13
  0.560000002       9.90309072E-13
  0.560999990       1.13164567E-12
  0.561999977       1.24493308E-12
  0.563000023       1.32364052E-12
  0.564000010       1.36229602E-12
  0.564999998       1.35672864E-12
  0.565999985       1.30426388E-12
  0.566999972       1.20386361E-12
  0.568000019       1.05620482E-12
  0.569000006       8.63693015E-13
  0.569999993       6.30410004E-13
  0.570999980       3.61997596E-13
  0.572000027       6.54807019E-14
  0.573000014      -2.50962581E-13
  0.574000001      -5.78275438E-13
  0.574999988      -9.06830980E-13
  0.575999975      -1.22676251E-12
  0.577000022      -1.52830353E-12
  0.578000009      -1.80212388E-12
  0.578999996      -2.03964927E-12
  0.579999983      -2.23335152E-12
  0.580999970      -2.37700094E-12
  0.582000017      -2.46586866E-12
  0.583000004      -2.49687337E-12
  0.583999991      -2.46866828E-12
  0.584999979      -2.38166496E-12
  0.586000025      -2.23799430E-12
  0.587000012      -2.04140762E-12
  0.588000000      -1.79712311E-12
  0.588999987      -1.51162427E-12
  0.589999974      -1.19241910E-12
  0.591000021      -8.47771181E-13
  0.592000008      -4.86412668E-13
  0.592999995      -1.17251356E-13
  0.593999982       2.50917017E-13
  0.595000029       6.09680221E-13
  0.596000016       9.51255025E-13
  0.597000003       1.26869804E-12
  0.597999990       1.55607536E-12
  0.598999977       1.80858594E-12
  0.600000024       2.02263618E-12
  0.601000011       2.19586523E-12
  0.601999998       2.32712265E-12
  0.602999985       2.41640106E-12
  0.603999972       2.46473046E-12
  0.605000019       2.47404007E-12
  0.606000006       2.44699638E-12
  0.606999993       2.38682446E-12
  0.607999980       2.29712256E-12
  0.609000027       2.18167997E-12
  0.610000014       2.04430288E-12
  0.611000001       1.88866002E-12
  0.611999989       1.71815080E-12
  0.612999976       1.53580339E-12
  0.614000022       1.34420404E-12
  0.615000010       1.14546035E-12
  0.615999997       9.41198074E-13
  0.616999984       7.32589499E-13
  0.617999971       5.20410429E-13
  0.619000018       3.05120566E-13
  0.620000005       8.69628940E-14
  0.620999992      -1.33925884E-13
  0.621999979      -3.57399548E-13
  0.623000026      -5.83188012E-13
  0.624000013      -8.10791375E-13
  0.625000000      -1.03938809E-12
  0.625999987      -1.26776237E-12
  0.626999974      -1.49425502E-12
  0.628000021      -1.71674036E-12
  0.629000008      -1.93263027E-12
  0.629999995      -2.13890646E-12
  0.630999982      -2.33217829E-12
  0.632000029      -2.50876533E-12
  0.633000016      -2.66479937E-12
  0.634000003      -2.79634172E-12
  0.634999990      -2.89951158E-12
  0.635999978      -2.97061941E-12
  0.637000024      -3.00629899E-12
  0.638000011      -3.00363337E-12
  0.638999999      -2.96026962E-12
  0.639999986      -2.87451725E-12
  0.640999973      -2.74542758E-12
  0.642000020      -2.57285035E-12
  0.643000007      -2.35746644E-12
  0.643999994      -2.10079653E-12
  0.644999981      -1.80518534E-12
  0.646000028      -1.47376339E-12
  0.647000015      -1.11038869E-12
  0.648000002      -7.19571538E-13
  0.648999989      -3.06385180E-13
  0.649999976       1.23632915E-13
  0.651000023       5.64585379E-13
  0.652000010       1.01032171E-12
  0.652999997       1.45454373E-12
  0.653999984       1.89090518E-12
  0.654999971       2.31310587E-12
  0.656000018       2.71497690E-12
  0.657000005       3.09055559E-12
  0.657999992       3.43415183E-12
  0.658999979       3.74040512E-12
  0.660000026       4.00433289E-12
  0.661000013       4.22137499E-12
  0.662000000       4.38743139E-12
  0.662999988       4.49889865E-12
  0.663999975       4.55270804E-12
  0.665000021       4.54636545E-12
  0.666000009       4.47799263E-12
  0.666999996       4.34637482E-12
  0.667999983       4.15101287E-12
  0.669000030       3.89217868E-12
  0.670000017       3.57097316E-12
  0.671000004       3.18938430E-12
  0.671999991       2.75034249E-12
  0.672999978       2.25776884E-12
  0.674000025       1.71661296E-12
  0.675000012       1.13287428E-12
  0.675999999       5.13604079E-13
  0.676999986      -1.33117259E-13
  0.677999973      -7.98231923E-13
  0.679000020      -1.47178764E-12
  0.680000007      -2.14305440E-12
  0.680999994      -2.80067614E-12
  0.681999981      -3.43285860E-12
  0.683000028      -4.02758816E-12
  0.684000015      -4.57288070E-12
  0.685000002      -5.05705547E-12
  0.685999990      -5.46902627E-12
  0.686999977      -5.79860248E-12
  0.688000023      -6.03679303E-12
  0.689000010      -6.17610043E-12
  0.689999998      -6.21079490E-12
  0.690999985      -6.13716066E-12
  0.691999972      -5.95370107E-12
  0.693000019      -5.66129392E-12
  0.694000006      -5.26328937E-12
  0.694999993      -4.76554213E-12
  0.695999980      -4.17637279E-12
  0.697000027      -3.50645554E-12
  0.698000014      -2.76863103E-12
  0.699000001      -1.97764635E-12
  0.699999988      -1.14982763E-12
  0.700999975      -3.02691086E-13
  0.702000022       5.45498000E-13
  0.703000009       1.37620471E-12
  0.703999996       2.17113003E-12
  0.704999983       2.91272713E-12
  0.705999970       3.58471022E-12
  0.707000017       4.17254079E-12
  0.708000004       4.66387345E-12
  0.708999991       5.04894434E-12
  0.709999979       5.32089043E-12
  0.711000025       5.47597948E-12
  0.712000012       5.51374918E-12
  0.713000000       5.43704231E-12
  0.713999987       5.25193257E-12
  0.714999974       4.96754460E-12
  0.716000021       4.59576864E-12
  0.717000008       4.15087712E-12
  0.717999995       3.64905415E-12
  0.718999982       3.10785057E-12
  0.720000029       2.54558614E-12
  0.721000016       1.98071247E-12
  0.722000003       1.43116302E-12
  0.722999990       9.13711056E-13
  0.723999977       4.43359271E-13
  0.725000024       3.27841459E-14
  0.726000011      -3.08143349E-13
  0.726999998      -5.72741615E-13
  0.727999985      -7.57790369E-13
  0.728999972      -8.63676752E-13
  0.730000019      -8.94407920E-13
  0.731000006      -8.57485795E-13
  0.731999993      -7.63644573E-13
  0.732999980      -6.26457436E-13
  0.734000027      -4.61823234E-13
  0.735000014      -2.87349002E-13
  0.736000001      -1.21648676E-13
  0.736999989       1.64183852E-14
  0.737999976       1.08541417E-13
  0.739000022       1.37757183E-13
  0.740000010       8.92231710E-14
  0.740999997      -4.90655185E-14
  0.741999984      -2.85642332E-13
  0.742999971      -6.25046998E-13
  0.744000018      -1.06743672E-12
  0.745000005      -1.60834909E-12
  0.745999992      -2.23863137E-12
  0.746999979      -2.94454478E-12
  0.748000026      -3.70804255E-12
  0.749000013      -4.50721838E-12
  0.750000000      -5.31691574E-12
  0.750999987      -6.10947837E-12
  0.751999974      -6.85561807E-12
  0.753000021      -7.52537442E-12
  0.754000008      -8.08913266E-12
  0.754999995      -8.51866234E-12
  0.755999982      -8.78814382E-12
  0.757000029      -8.87514107E-12
  0.758000016      -8.76148893E-12
  0.759000003      -8.43405727E-12
  0.759999990      -7.88536163E-12
  0.760999978      -7.11399949E-12
  0.762000024      -6.12488619E-12
  0.763000011      -4.92928138E-12
  0.763999999      -3.54460124E-12
  0.764999986      -1.99401736E-12
  0.765999973      -3.05850560E-13
  0.767000020       1.48721844E-12
  0.768000007       3.34910008E-12
  0.768999994       5.24137591E-12
  0.769999981       7.12447766E-12
  0.771000028       8.95891521E-12
  0.772000015       1.07065199E-11
  0.773000002       1.23316574E-11
  0.773999989       1.38023664E-11
  0.774999976       1.50913830E-11
  0.776000023       1.61770181E-11
  0.777000010       1.70438507E-11
  0.777999997       1.76832143E-11
  0.778999984       1.80934608E-11
  0.779999971       1.82799869E-11
  0.781000018       1.82550260E-11
  0.782000005       1.80372123E-11
  0.782999992       1.76509311E-11
  0.783999979       1.71254764E-11
  0.785000026       1.64940457E-11
  0.786000013       1.57926103E-11
  0.787000000       1.50587043E-11
  0.787999988       1.43301664E-11
  0.788999975       1.36438855E-11
  0.790000021       1.30345951E-11
  0.791000009       1.25337501E-11
  0.791999996       1.21685344E-11
  0.792999983       1.19610329E-11
  0.794000030       1.19275883E-11
  0.795000017       1.20783704E-11
  0.796000004       1.24171663E-11
  0.796999991       1.29413954E-11
  0.797999978       1.36423529E-11
  0.799000025       1.45056632E-11
  0.800000012       1.55119216E-11
  0.800999999       1.66375056E-11
  0.801999986       1.78555139E-11
  0.802999973       1.91368050E-11
  0.804000020       2.04510957E-11
  0.805000007       2.17680665E-11
  0.805999994       2.30584492E-11
  0.806999981       2.42950469E-11
  0.808000028       2.54536513E-11
  0.809000015       2.65138311E-11
  0.810000002       2.74595572E-11
  0.810999990       2.82796529E-11
  0.811999977       2.89680502E-11
  0.813000023       2.95238452E-11
  0.814000010       2.99511735E-11
  0.814999998       3.02588891E-11
  0.815999985       3.04600858E-11
  0.816999972       3.05714620E-11
  0.818000019       3.06125715E-11
  0.819000006       3.06050012E-11
  0.819999993       3.05714828E-11
  0.820999980       3.05349912E-11
  0.822000027       3.05178625E-11
  0.823000014       3.05409621E-11
  0.824000001       3.06229382E-11
  0.824999988       3.07795768E-11
  0.825999975       3.10232846E-11
  0.827000022       3.13627284E-11
  0.828000009       3.18026196E-11
  0.828999996       3.23436590E-11
  0.829999983       3.29826409E-11
  0.830999970       3.37126958E-11
  0.832000017       3.45236756E-11
  0.833000004       3.54026530E-11
  0.833999991       3.63345048E-11
  0.834999979       3.73025603E-11
  0.836000025       3.82892953E-11
  0.837000012       3.92770261E-11
  0.838000000       4.02485892E-11
  0.838999987       4.11879801E-11
  0.839999974       4.20809255E-11
  0.841000021       4.29153657E-11
  0.842000008       4.36818498E-11
  0.842999995       4.43737894E-11
  0.843999982       4.49876074E-11
  0.845000029       4.55227904E-11
  0.846000016       4.59817774E-11
  0.847000003       4.63697657E-11
  0.847999990       4.66944400E-11
  0.848999977       4.69656015E-11
  0.850000024       4.71947308E-11
  0.851000011       4.73945154E-11
  0.851999998       4.75783683E-11
  0.852999985       4.77599245E-11
  0.853999972       4.79525621E-11
  0.855000019       4.81689862E-11
  0.856000006       4.84208472E-11