   0.00000000       0.00000000    
   1.00000005E-03   0.00000000    
   2.00000009E-03   0.00000000    
   3.00000003E-03   0.00000000    
   4.00000019E-03   0.00000000    
   4.99999989E-03   0.00000000    
   6.00000005E-03   0.00000000    
   7.00000022E-03   0.00000000    
   8.00000038E-03   0.00000000    
   8.99999961E-03   0.00000000    
   9.99999978E-03   0.00000000    
   1.09999999E-02  -1.43306310E-37
   1.20000001E-02  -2.39727020E-36
   1.30000003E-02  -1.69643479E-35
   1.40000004E-02  -7.21368913E-35
   1.49999997E-02  -2.70901030E-34
   1.60000008E-02  -9.27934230E-34
   1.70000009E-02  -2.88151612E-33
   1.79999992E-02  -8.18573417E-33
   1.89999994E-02  -2.14427067E-32
   1.99999996E-02  -5.20945830E-32
   2.09999997E-02  -1.17933845E-31
   2.19999999E-02  -2.49463364E-31
   2.30000000E-02  -4.93265641E-31
   2.40000002E-02  -9.09286540E-31
   2.50000004E-02  -1.55017687E-30
   2.60000005E-02  -2.39948490E-30
   2.70000007E-02  -3.22682641E-30
   2.80000009E-02  -3.28923707E-30
   2.89999992E-02  -7.66597606E-31
   2.99999993E-02   8.23650422E-30
   3.09999995E-02   3.13592342E-29
   3.20000015E-02   8.26379706E-29
   3.29999998E-02   1.86535319E-28
   3.40000018E-02   3.83788004E-28
   3.50000001E-02   7.39514295E-28
   3.59999985E-02   1.35391623E-27
   3.70000005E-02   2.37563728E-27
   3.79999988E-02   4.01731769E-27
   3.90000008E-02   6.57202793E-27
   3.99999991E-02   1.04279731E-26
   4.10000011E-02   1.60770453E-26
   4.19999994E-02   2.41104489E-26
   4.30000015E-02   3.51916951E-26
   4.39999998E-02   4.99939335E-26
   4.50000018E-02   6.90850977E-26
   4.60000001E-02   9.27411812E-26
   4.69999984E-02   1.20665643E-25
   4.80000004E-02   1.51592812E-25
   4.89999987E-02   1.82755998E-25
   5.00000007E-02   2.09208303E-25
   5.09999990E-02   2.22998036E-25
   5.20000011E-02   2.12221974E-25
   5.29999994E-02   1.60010352E-25
   5.40000014E-02   4.35385831E-26
   5.49999997E-02  -1.66788356E-25
   5.60000017E-02  -5.07772065E-25
   5.70000000E-02  -1.02320426E-24
   5.79999983E-02  -1.76265625E-24
   5.90000004E-02  -2.77887140E-24
   5.99999987E-02  -4.12331363E-24
   6.10000007E-02  -5.83940677E-24
   6.19999990E-02  -7.95303611E-24
   6.30000010E-02  -1.04599761E-23
   6.40000030E-02  -1.33100793E-23
   6.49999976E-02  -1.63883550E-23
   6.59999996E-02  -1.94934361E-23
   6.70000017E-02  -2.23144674E-23
   6.80000037E-02  -2.44080553E-23
   6.89999983E-02  -2.51776901E-23
   7.00000003E-02  -2.38588283E-23
   7.10000023E-02  -1.95136499E-23
   7.19999969E-02  -1.10403292E-23
   7.29999989E-02   2.79776817E-24
   7.40000010E-02   2.33172453E-23
   7.50000030E-02   5.18284013E-23
   7.59999976E-02   8.95125455E-23
   7.69999996E-02   1.37259172E-22
   7.80000016E-02   1.95461431E-22
   7.90000036E-02   2.63771787E-22
   7.99999982E-02   3.40823656E-22
   8.10000002E-02   4.23930266E-22
   8.20000023E-02   5.08778277E-22
   8.29999968E-02   5.89140307E-22
   8.39999989E-02   6.56637771E-22
   8.50000009E-02   7.00592898E-22
   8.60000029E-02   7.08014603E-22
   8.69999975E-02   6.63767205E-22
   8.79999995E-02   5.50973576E-22
   8.90000015E-02   3.51702313E-22
   9.00000036E-02   4.79824078E-23
   9.09999982E-02  -3.76823229E-22
   9.20000002E-02  -9.36271518E-22
   9.30000022E-02  -1.63873153E-21
   9.39999968E-02  -2.48495981E-21
   9.49999988E-02  -3.46543965E-21
   9.60000008E-02  -4.55761089E-21
   9.70000029E-02  -5.72316249E-21
   9.79999974E-02  -6.90561395E-21
   9.89999995E-02  -8.02844700E-21
  0.100000001      -8.99410686E-21
  0.101000004      -9.68419763E-21
  0.101999998      -9.96122882E-21
  0.103000000      -9.67224391E-21
  0.104000002      -8.65463161E-21
  0.104999997      -6.74434442E-21
  0.105999999      -3.78664140E-21
  0.107000001       3.50673083E-22
  0.108000003       5.76172575E-21
  0.108999997       1.24851960E-20
  0.109999999       2.04857612E-20
  0.111000001       2.96352996E-20
  0.112000003       3.96950599E-20
  0.112999998       5.03002521E-20
  0.114000000       6.09487419E-20
  0.115000002       7.09956454E-20
  0.115999997       7.96557611E-20
  0.116999999       8.60157072E-20
  0.118000001       8.90573667E-20
  0.119000003       8.76941149E-20
  0.119999997       8.08205736E-20
  0.120999999       6.73761486E-20
  0.122000001       4.64216636E-20
  0.123000003       1.72273853E-20
  0.123999998      -2.06303320E-20
  0.125000000      -6.71677895E-20
  0.126000002      -1.21893258E-19
  0.127000004      -1.83713337E-19
  0.128000006      -2.50853714E-19
  0.128999993      -3.20802562E-19
  0.129999995      -3.90285035E-19
  0.130999997      -4.55277624E-19
  0.131999999      -5.11070388E-19
  0.133000001      -5.52383562E-19
  0.134000003      -5.73544134E-19
  0.135000005      -5.68724204E-19
  0.136000007      -5.32240473E-19
  0.136999995      -4.58910446E-19
  0.137999997      -3.44455843E-19
  0.138999999      -1.85939603E-19
  0.140000001       1.77819921E-20
  0.141000003       2.65615398E-19
  0.142000005       5.53821719E-19
  0.143000007       8.75675317E-19
  0.143999994       1.22122133E-18
  0.144999996       1.57716728E-18
  0.145999998       1.92693936E-18
  0.147000000       2.25093402E-18
  0.148000002       2.52698714E-18
  0.149000004       2.73107762E-18
  0.150000006       2.83826596E-18
  0.150999993       2.82386640E-18
  0.151999995       2.66482355E-18
  0.152999997       2.34125842E-18
  0.153999999       1.83812788E-18
  0.155000001       1.14692624E-18
  0.156000003       2.67341672E-19
  0.157000005      -7.91231240E-19
  0.158000007      -2.00843051E-18
  0.158999994      -3.35203280E-18
  0.159999996      -4.77753838E-18
  0.160999998      -6.22833914E-18
  0.162000000      -7.63656450E-18
  0.163000003      -8.92466504E-18
  0.164000005      -1.00077869E-17
  0.165000007      -1.07969280E-17
  0.165999994      -1.12028429E-17
  0.166999996      -1.11406058E-17
  0.167999998      -1.05346977E-17
  0.169000000      -9.32442985E-18
  0.170000002      -7.46946575E-18
  0.171000004      -4.95516921E-18
  0.172000006      -1.79746202E-18
  0.172999993       1.95314134E-18
  0.173999995       6.20866217E-18
  0.174999997       1.08422798E-17
  0.175999999       1.56887509E-17
  0.177000001       2.05468653E-17
  0.178000003       2.51841374E-17
  0.179000005       2.93438021E-17
  0.180000007       3.27540957E-17
  0.180999994       3.51396813E-17
  0.181999996       3.62349379E-17
  0.182999998       3.57986696E-17
  0.184000000       3.36297094E-17
  0.185000002       2.95827249E-17
  0.186000004       2.35834222E-17
  0.187000006       1.56422964E-17
  0.187999994       5.86602038E-18
  0.188999996      -5.53444503E-18
  0.189999998      -1.82399049E-17
  0.191000000      -3.18238848E-17
  0.192000002      -4.57591253E-17
  0.193000004      -5.94300286E-17
  0.194000006      -7.21512127E-17
  0.194999993      -8.31920225E-17
  0.195999995      -9.18065858E-17
  0.196999997      -9.72685388E-17
  0.197999999      -9.89093210E-17
  0.199000001      -9.61585815E-17
  0.200000003      -8.85848364E-17
  0.201000005      -7.59344325E-17
  0.202000007      -5.81666194E-17
  0.202999994      -3.54824715E-17
  0.203999996      -8.34541527E-18
  0.204999998       2.25086598E-17
  0.206000000       5.60735480E-17
  0.207000002       9.10884673E-17
  0.208000004       1.26068360E-16
  0.209000006       1.59348841E-16
  0.209999993       1.89145461E-16
  0.210999995       2.13625997E-16
  0.211999997       2.30993640E-16
  0.213000000       2.39578372E-16
  0.214000002       2.37932852E-16
  0.215000004       2.24928646E-16
  0.216000006       1.99848054E-16
  0.216999993       1.62466584E-16
  0.217999995       1.13120827E-16
  0.218999997       5.27568615E-17
  0.219999999      -1.70454859E-17
  0.221000001      -9.40763363E-17
  0.222000003      -1.75530346E-16
  0.223000005      -2.58073866E-16
  0.224000007      -3.37945129E-16
  0.224999994      -4.11086027E-16
  0.225999996      -4.73302370E-16
  0.226999998      -5.20448489E-16
  0.228000000      -5.48629010E-16
  0.229000002      -5.54410645E-16
  0.230000004      -5.35034396E-16
  0.231000006      -4.88618155E-16
  0.231999993      -4.14338978E-16
  0.232999995      -3.12584248E-16
  0.233999997      -1.85061267E-16
  0.234999999      -3.48556969E-17
  0.236000001       1.33568731E-16
  0.237000003       3.14435465E-16
  0.238000005       5.00788537E-16
  0.238999993       6.84694477E-16
  0.239999995       8.57510057E-16
  0.240999997       1.01020961E-15
  0.241999999       1.13376207E-15
  0.243000001       1.21954512E-15
  0.244000003       1.25978035E-15
  0.245000005       1.24797102E-15
  0.246000007       1.17932270E-15
  0.246999994       1.05112532E-15
  0.247999996       8.63075116E-16
  0.248999998       6.17516876E-16
  0.250000000       3.19587304E-16
  0.250999987      -2.27554872E-17
  0.252000004      -3.98827687E-16
  0.252999991      -7.95447794E-16
  0.254000008      -1.19729727E-15
  0.254999995      -1.58740962E-15
  0.256000012      -1.94777598E-15
  0.256999999      -2.26004907E-15
  0.257999986      -2.50632412E-15
  0.259000003      -2.66996453E-15
  0.259999990      -2.73644116E-15
  0.261000007      -2.69414795E-15
  0.261999995      -2.53515458E-15
  0.263000011      -2.25585859E-15
  0.263999999      -1.85749963E-15
  0.264999986      -1.34650117E-15
  0.266000003      -7.34613411E-16
  0.266999990      -3.88331784E-17
  0.268000007       7.18910532E-16
  0.268999994       1.51230925E-15
  0.270000011       2.31145932E-15
  0.270999998       3.08386104E-15
  0.272000015       3.79560165E-15
  0.273000002       4.41268760E-15
  0.273999989       4.90247508E-15
  0.275000006       5.23514431E-15
  0.275999993       5.38515680E-15
  0.277000010       5.33263356E-15
  0.277999997       5.06458575E-15
  0.279000014       4.57593710E-15
  0.280000001       3.87028115E-15
  0.280999988       2.96032171E-15
  0.282000005       1.86796239E-15
  0.282999992       6.24014043E-16
  0.284000009      -7.32488523E-16
  0.284999996      -2.15535432E-15
  0.286000013      -3.59266780E-15
  0.287000000      -4.98854591E-15
  0.287999988      -6.28516362E-15
  0.289000005      -7.42498155E-15
  0.289999992      -8.35309249E-15
  0.291000009      -9.01959476E-15
  0.291999996      -9.38190040E-15
  0.293000013      -9.40687178E-15
  0.294000000      -9.07269695E-15
  0.294999987      -8.37041092E-15
  0.296000004      -7.30498154E-15
  0.296999991      -5.89589268E-15
  0.298000008      -4.17718025E-15
  0.298999995      -2.19689027E-15
  0.300000012      -1.59548185E-17
  0.300999999       2.29350052E-15
  0.301999986       4.65037309E-15
  0.303000003       6.96725892E-15
  0.303999990       9.15350644E-15
  0.305000007       1.11185390E-14
  0.305999994       1.27753363E-14
  0.307000011       1.40439392E-14
  0.307999998       1.48548471E-14
  0.308999985       1.51521675E-14
  0.310000002       1.48963991E-14
  0.310999990       1.40667134E-14
  0.312000006       1.26626428E-14
  0.312999994       1.07050802E-14
  0.314000010       8.23653229E-15
  0.314999998       5.32058494E-15
  0.316000015       2.04057458E-15
  0.317000002      -1.50251363E-15
  0.317999989      -5.19287313E-15
  0.319000006      -8.90335474E-15
  0.319999993      -1.24994966E-14
  0.321000010      -1.58439749E-14
  0.321999997      -1.88013447E-14
  0.323000014      -2.12429087E-14
  0.324000001      -2.30515527E-14
  0.324999988      -2.41263867E-14
  0.326000005      -2.43870205E-14
  0.326999992      -2.37773278E-14
  0.328000009      -2.22685555E-14
  0.328999996      -1.98616385E-14
  0.330000013      -1.65886405E-14
  0.331000000      -1.25132279E-14
  0.331999987      -7.73012601E-15
  0.333000004      -2.36354549E-15
  0.333999991       3.43542354E-15
  0.335000008       9.49240347E-15
  0.335999995       1.56142392E-14
  0.337000012       2.15943291E-14
  0.338000000       2.72186567E-14
  0.338999987       3.22723585E-14
  0.340000004       3.65466799E-14
  0.340999991       3.98461104E-14
  0.342000008       4.19955005E-14
  0.342999995       4.28469617E-14
  0.344000012       4.22862971E-14
  0.344999999       4.02387813E-14
  0.345999986       3.66740567E-14
  0.347000003       3.16099313E-14
  0.347999990       2.51149267E-14
  0.349000007       1.73093758E-14
  0.349999994       8.36494333E-15
  0.351000011      -1.49750512E-15
  0.351999998      -1.20117674E-14
  0.352999985      -2.28719089E-14
  0.354000002      -3.37395551E-14
  0.354999989      -4.42527789E-14
  0.356000006      -5.40364093E-14
  0.356999993      -6.27135740E-14
  0.358000010      -6.99181449E-14
  0.358999997      -7.53078088E-14
  0.360000014      -7.85773153E-14
  0.361000001      -7.94714839E-14
  0.361999989      -7.77975368E-14
  0.363000005      -7.34362319E-14
  0.363999993      -6.63512959E-14
  0.365000010      -5.65967290E-14
  0.365999997      -4.43214970E-14
  0.367000014      -2.97712159E-14
  0.368000001      -1.32865393E-14
  0.368999988       4.70198662E-15
  0.370000005       2.36827058E-14
  0.370999992       4.30752405E-14
  0.372000009       6.22463507E-14
  0.372999996       8.05289266E-14
  0.374000013       9.72436311E-14
  0.375000000       1.11722656E-13
  0.375999987       1.23334773E-13
  0.377000004       1.31510850E-13
  0.377999991       1.35768878E-13
  0.379000008       1.35737518E-13
  0.379999995       1.31177079E-13
  0.381000012       1.21996963E-13
  0.381999999       1.08268564E-13
  0.382999986       9.02328207E-14
  0.384000003       6.83017214E-14
  0.384999990       4.30532109E-14
  0.386000007       1.52192728E-14
  0.386999995      -1.43328020E-14
  0.388000011      -4.46257343E-14
  0.388999999      -7.46035517E-14
  0.389999986      -1.03167983E-13
  0.391000003      -1.29218833E-13
  0.391999990      -1.51696960E-13
  0.393000007      -1.69628200E-13
  0.393999994      -1.82166470E-13
  0.395000011      -1.88634359E-13
  0.395999998      -1.88559075E-13
  0.397000015      -1.81702215E-13
  0.398000002      -1.68081586E-13
  0.398999989      -1.47983663E-13
  0.400000006      -1.21965629E-13
  0.400999993      -9.08462419E-14
  0.402000010      -5.56852165E-14
  0.402999997      -1.77513728E-14
  0.404000014       2.15197936E-14
  0.405000001       6.05779465E-14
  0.405999988       9.78174112E-14
  0.407000005       1.31642310E-13
  0.407999992       1.60534766E-13
  0.409000009       1.83123455E-13
  0.409999996       1.98249484E-13
  0.411000013       2.05026683E-13
  0.412000000       2.02893285E-13
  0.412999988       1.91652250E-13
  0.414000005       1.71497907E-13
  0.414999992       1.43026921E-13
  0.416000009       1.07232257E-13
  0.416999996       6.54794348E-14
  0.418000013       1.94651797E-14
  0.419000000      -2.88406858E-14
  0.419999987      -7.72684935E-14
  0.421000004      -1.23534700E-13
  0.421999991      -1.65337552E-13
  0.423000008      -2.00458587E-13
  0.423999995      -2.26866025E-13
  0.425000012      -2.42815452E-13
  0.425999999      -2.46943254E-13
  0.426999986      -2.38348322E-13
  0.428000003      -2.16657719E-13
  0.428999990      -1.82072659E-13
  0.430000007      -1.35391739E-13
  0.430999994      -7.80090917E-14
  0.432000011      -1.18863456E-14
  0.432999998       6.05018151E-14
  0.433999985       1.36247459E-13
  0.435000002       2.12112391E-13
  0.435999990       2.84651046E-13
  0.437000006       3.50348819E-13
  0.437999994       4.05770903E-13
  0.439000010       4.47715378E-13
  0.439999998       4.73364241E-13
  0.441000015       4.80425758E-13
  0.442000002       4.67261700E-13
  0.442999989       4.32992943E-13
  0.444000006       3.77578204E-13
  0.444999993       3.01861102E-13
  0.446000010       2.07581998E-13
  0.446999997       9.73526747E-14
  0.448000014      -2.54070040E-14
  0.449000001      -1.56569216E-13
  0.449999988      -2.91432622E-13
  0.451000005      -4.24886851E-13
  0.451999992      -5.51601570E-13
  0.453000009      -6.66232965E-13
  0.453999996      -7.63639748E-13
  0.455000013      -8.39100111E-13
  0.456000000      -8.88520757E-13
  0.456999987      -9.08628587E-13
  0.458000004      -8.97136640E-13
  0.458999991      -8.52876634E-13
  0.460000008      -7.75891070E-13
  0.460999995      -6.67479743E-13
  0.462000012      -5.30197251E-13
  0.463000000      -3.67799975E-13
  0.463999987      -1.85142998E-13
  0.465000004       1.19706016E-14
  0.465999991       2.16983088E-13
  0.467000008       4.22811552E-13
  0.467999995       6.22105232E-13
  0.469000012       8.07521096E-13
  0.469999999       9.72006763E-13
  0.470999986       1.10907952E-12
  0.472000003       1.21309007E-12
  0.472999990       1.27946015E-12
  0.474000007       1.30488328E-12
  0.474999994       1.28748021E-12
  0.476000011       1.22690194E-12
  0.476999998       1.12437392E-12
  0.477999985       9.82680192E-13
  0.479000002       8.06086209E-13
  0.479999989       6.00201583E-13
  0.481000006       3.71788917E-13
  0.481999993       1.28524388E-13
  0.483000010      -1.21280590E-13
  0.483999997      -3.68986010E-13
  0.485000014      -6.05946174E-13
  0.486000001      -8.23836388E-13
  0.486999989      -1.01496968E-12
  0.488000005      -1.17259175E-12
  0.488999993      -1.29114146E-12
  0.490000010      -1.36646608E-12
  0.490999997      -1.39598326E-12
  0.492000014      -1.37878153E-12
  0.493000001      -1.31565668E-12
  0.493999988      -1.20908145E-12
  0.495000005      -1.06310934E-12
  0.495999992      -8.83217273E-13
  0.497000009      -6.76092971E-13
  0.497999996      -4.49375346E-13
  0.499000013      -2.11359047E-13
  0.500000000       2.93251209E-14
  0.500999987       2.64041013E-13
  0.501999974       4.84475687E-13
  0.503000021       6.82952501E-13
  0.504000008       8.52716227E-13
  0.504999995       9.88179265E-13
  0.505999982       1.08511854E-12
  0.507000029       1.14081715E-12
  0.508000016       1.15414438E-12
  0.509000003       1.12557229E-12
  0.509999990       1.05712921E-12
  0.510999978       9.52292607E-13
  0.512000024       8.15827115E-13
  0.513000011       6.53575447E-13
  0.513999999       4.72210975E-13
  0.514999986       2.78963159E-13
  0.515999973       8.13276787E-14
  0.517000020      -1.13226885E-13
  0.518000007      -2.97543511E-13
  0.518999994      -4.65041308E-13
  0.519999981      -6.09949753E-13
  0.521000028      -7.27504266E-13
  0.522000015      -8.14096241E-13
  0.523000002      -8.67372743E-13
  0.523999989      -8.86283722E-13
  0.524999976      -8.71076919E-13
  0.526000023      -8.23242299E-13
  0.527000010      -7.45410732E-13
  0.527999997      -6.41212560E-13
  0.528999984      -5.15103856E-13
  0.529999971      -3.72169038E-13
  0.531000018      -2.17908807E-13
  0.532000005      -5.80229969E-14
  0.532999992       1.01802667E-13
  0.533999979       2.56097308E-13
  0.535000026       3.99785890E-13
  0.536000013       5.28344458E-13
  0.537000000       6.37924609E-13
  0.537999988       7.25445203E-13
  0.538999975       7.88649419E-13
  0.540000021       8.26128066E-13
  0.541000009       8.37311123E-13
  0.541999996       8.22431045E-13
  0.542999983       7.82462040E-13
  0.544000030       7.19040441E-13
  0.545000017       6.34372004E-13
  0.546000004       5.31131400E-13
  0.546999991       4.12359220E-13
  0.547999978       2.81361550E-13
  0.549000025       1.41615588E-13
  0.550000012      -3.31562577E-15
  0.550999999      -1.49857530E-13
  0.551999986      -2.94486820E-13
  0.552999973      -4.33782947E-13
  0.554000020      -5.64470020E-13
  0.555000007      -6.83450909E-13
  0.555999994      -7.87836268E-13
  0.556999981      -8.74971753E-13
  0.558000028      -9.42465832E-13
  0.559000015      -9.88221007E-13
  0.560000002      -1.01047046E-12
  0.560999990      -1.00782078E-12
  0.561999977      -9.79301384E-13
  0.563000023      -9.24419829E-13
  0.564000010      -8.43220242E-13
  0.564999998      -7.36341760E-13
  0.565999985      -6.05073500E-13
  0.566999972      -4.51400690E-13
  0.568000019      -2.78036654E-13
  0.569000006      -8.84357352E-14
  0.569999993       1.13218368E-13
  0.570999980       3.22052985E-13
  0.572000027       5.32578972E-13
  0.573000014       7.38797532E-13
  0.574000001       9.34341255E-13
  0.574999988       1.11264849E-12
  0.575999975       1.26716649E-12
  0.577000022       1.39157923E-12
  0.578000009       1.48005165E-12
  0.578999996       1.52748072E-12
  0.579999983       1.52974443E-12
  0.580999970       1.48393613E-12
  0.582000017       1.38857307E-12
  0.583000004       1.24376735E-12
  0.583999991       1.05134846E-12
  0.584999979       8.14927661E-13
  0.586000025       5.39897337E-13
  0.587000012       2.33358607E-13
  0.588000000      -9.60237342E-14
  0.588999987      -4.38239180E-13
  0.589999974      -7.82218095E-13
  0.591000021      -1.11618007E-12
  0.592000008      -1.42803250E-12
  0.592999995      -1.70580726E-12
  0.593999982      -1.93811894E-12
  0.595000029      -2.11462727E-12
  0.596000016      -2.22648375E-12
  0.597000003      -2.26674539E-12
  0.597999990      -2.23073469E-12
  0.598999977      -2.11632903E-12
  0.600000024      -1.92416439E-12
  0.601000011      -1.65774046E-12
  0.601999998      -1.32341848E-12
  0.602999985      -9.30307047E-13
  0.603999972      -4.90035042E-13
  0.605000019      -1.64174501E-14
  0.606000006       4.74978455E-13
  0.606999993       9.67351850E-13
  0.607999980       1.44325480E-12
  0.609000027       1.88522548E-12
  0.610000014       2.27644444E-12
  0.611000001       2.60138742E-12
  0.611999989       2.84645094E-12
  0.612999976       3.00052214E-12
  0.614000022       3.05546994E-12
  0.615000010       3.00653599E-12
  0.615999997       2.85260682E-12
  0.616999984       2.59635217E-12
  0.617999971       2.24422174E-12
  0.619000018       1.80629708E-12
  0.620000005       1.29600042E-12
  0.620999992       7.29668875E-13
  0.621999979       1.26007711E-13
  0.623000026      -4.94558062E-13
  0.624000013      -1.11061041E-12
  0.625000000      -1.70051625E-12
  0.625999987      -2.24322774E-12
  0.626999974      -2.71907236E-12
  0.628000021      -3.11050382E-12
  0.629000008      -3.40278218E-12
  0.629999995      -3.58455691E-12
  0.630999982      -3.64832773E-12
  0.632000029      -3.59076592E-12
  0.633000016      -3.41287762E-12
  0.634000003      -3.12000642E-12
  0.634999990      -2.72167011E-12
  0.635999978      -2.23123733E-12
  0.637000024      -1.66545543E-12
  0.638000011      -1.04384632E-12
  0.638999999      -3.87993836E-13
  0.639999986       2.79252126E-13
  0.640999973       9.34622605E-13
  0.642000020       1.55529604E-12
  0.643000007       2.11975077E-12
  0.643999994       2.60857004E-12
  0.644999981       3.00516860E-12
  0.646000028       3.29641241E-12
  0.647000015       3.47310678E-12
  0.648000002       3.53033466E-12
  0.648999989       3.46763135E-12
  0.649999976       3.28898822E-12
  0.651000023       3.00268664E-12
  0.652000010       2.62096703E-12
  0.652999997       2.15954685E-12
  0.653999984       1.63700564E-12
  0.654999971       1.07406152E-12
  0.656000018       4.92767285E-13
  0.657000005      -8.43434209E-14
  0.657999992      -6.35125958E-13
  0.658999979      -1.13867769E-12
  0.660000026      -1.57614015E-12
  0.661000013      -1.93142074E-12
  0.662000000      -2.19180620E-12
  0.662999988      -2.34844305E-12
  0.663999975      -2.39666880E-12
  0.665000021      -2.33618073E-12
  0.666000009      -2.17103549E-12
  0.666999996      -1.90948082E-12
  0.667999983      -1.56362705E-12
  0.669000030      -1.14896916E-12
  0.670000017      -6.83780289E-13
  0.671000004      -1.88399480E-13
  0.671999991       3.15559482E-13
  0.672999978       8.06046961E-13
  0.674000025       1.26143236E-12
  0.675000012       1.66134229E-12
  0.675999999       1.98745100E-12
  0.676999986       2.22419284E-12
  0.677999973       2.35936921E-12
  0.679000020       2.38462917E-12
  0.680000007       2.29580439E-12
  0.680999994       2.09308721E-12
  0.681999981       1.78104525E-12
  0.683000028       1.36847250E-12
  0.684000015       8.68083112E-13
  0.685000002       2.96058642E-13
  0.685999990      -3.28532422E-13
  0.686999977      -9.84421746E-13
  0.688000023      -1.64890974E-12
  0.689000010      -2.29868555E-12
  0.689999998      -2.91066997E-12
  0.690999985      -3.46284850E-12
  0.691999972      -3.93506538E-12
  0.693000019      -4.30974874E-12
  0.694000006      -4.57254156E-12
  0.694999993      -4.71281564E-12
  0.695999980      -4.72404841E-12
  0.697000027      -4.60405368E-12
  0.698000014      -4.35505495E-12
  0.699000001      -3.98360078E-12
  0.699999988      -3.50032698E-12
  0.700999975      -2.91957344E-12
  0.702000022      -2.25887126E-12
  0.703000009      -1.53831982E-12
  0.703999996      -7.79876435E-13
  0.704999983      -6.58408874E-15
  0.705999970       7.58232778E-13
  0.707000017       1.49177686E-12
  0.708000004       2.17256204E-12
  0.708999991       2.78114424E-12
  0.709999979       3.30077372E-12
  0.711000025       3.71794609E-12
  0.712000012       4.02283545E-12
  0.713000000       4.20959188E-12
  0.713999987       4.27649886E-12
  0.714999974       4.22598371E-12
  0.716000021       4.06448443E-12
  0.717000008       3.80217906E-12
  0.717999995       3.45258978E-12
  0.718999982       3.03208023E-12
  0.720000029       2.55926270E-12
  0.721000016       2.05433955E-12
  0.722000003       1.53840590E-12
  0.722999990       1.03273791E-12
  0.723999977       5.58092093E-13
  0.725000024       1.34042991E-13
  0.726000011      -2.21619313E-13
  0.726999998      -4.93411410E-13
  0.727999985      -6.68580696E-13
  0.728999972      -7.37419728E-13
  0.730000019      -6.93461727E-13
  0.731000006      -5.33555513E-13
  0.731999993      -2.57820675E-13
  0.732999980       1.30510999E-13
  0.734000027       6.25357947E-13
  0.735000014       1.21813876E-12
  0.736000001       1.89819211E-12
  0.736999989       2.65325002E-12
  0.737999976       3.46994135E-12
  0.739000022       4.33429985E-12
  0.740000010       5.23226341E-12
  0.740999997       6.15013899E-12
  0.741999984       7.07501679E-12
  0.742999971       7.99512193E-12
  0.744000018       8.90008293E-12
  0.745000005       9.78112643E-12
  0.745999992       1.06311748E-11
  0.746999979       1.14448650E-11
  0.748000026       1.22184858E-11
  0.749000013       1.29498391E-11
  0.750000000       1.36380456E-11
  0.750999987       1.42833020E-11
  0.751999974       1.48866128E-11
  0.753000021       1.54495063E-11
  0.754000008       1.59737570E-11
  0.754999995       1.64611311E-11
  0.755999982       1.69131636E-11
  0.757000029       1.73309925E-11
  0.758000016       1.77152442E-11
  0.759000003       1.80659845E-11
  0.759999990       1.83827398E-11
  0.760999978       1.86645786E-11
  0.762000024       1.89102501E-11
  0.763000011       1.91183736E-11
  0.763999999       1.92876722E-11
  0.764999986       1.94172196E-11
  0.765999973       1.95066983E-11
  0.767000020       1.95566514E-11
  0.768000007       1.95687008E-11
  0.768999994       1.95457296E-11
  0.769999981       1.94919983E-11
  0.771000028       1.94132002E-11
  0.772000015       1.93164408E-11
  0.773000002       1.92101335E-11
  0.773999989       1.91038192E-11
  0.774999976       1.90079064E-11
  0.776000023       1.89333393E-11
  0.777000010       1.88912202E-11
  0.777999997       1.88923894E-11
  0.778999984       1.89469742E-11
  0.779999971       1.90639466E-11
  0.781000018       1.92507000E-11
  0.782000005       1.95126606E-11
  0.782999992       1.98529630E-11
  0.783999979       2.02722093E-11
  0.785000026       2.07683176E-11
  0.786000013       2.13364708E-11
  0.787000000       2.19691852E-11
  0.787999988       2.26564913E-11
  0.788999975       2.33862166E-11
  0.790000021       2.41443844E-11
  0.791000009       2.49156962E-11
  0.791999996       2.56840816E-11
  0.792999983       2.64333000E-11
  0.794000030       2.71475741E-11
  0.795000017       2.78122178E-11
  0.796000004       2.84142414E-11
  0.796999991       2.89429054E-11
  0.797999978       2.93901986E-11
  0.799000025       2.97512258E-11
  0.800000012       3.00244656E-11
  0.800999999       3.02119094E-11
  0.801999986       3.03190632E-11
  0.802999973       3.03548089E-11
  0.804000020       3.03311369E-11
  0.805000007       3.02627368E-11
  0.805999994       3.01664874E-11
  0.806999981       3.00608635E-11
  0.808000028       2.99652560E-11
  0.809000015       2.98992497E-11
  0.810000002       2.98819060E-11
  0.810999990       2.99310472E-11
  0.811999977       3.00625809E-11
  0.813000023       3.02899060E-11
  0.814000010       3.06234066E-11
  0.814999998       3.10700736E-11
  0.815999985       3.16332412E-11
  0.816999972       3.23124826E-11
  0.818000019       3.31036414E-11
  0.819000006       3.39989981E-11
  0.819999993       3.49876100E-11
  0.820999980       3.60557452E-11
  0.822000027       3.71874302E-11
  0.823000014       3.83650854E-11
  0.824000001       3.95702256E-11
  0.824999988       4.07841816E-11
  0.825999975       4.19888256E-11
  0.827000022       4.31672788E-11
  0.828000009       4.43045566E-11
  0.828999996       4.53881481E-11
  0.829999983       4.64084812E-11
  0.830999970       4.73592797E-11
  0.832000017       4.82377784E-11
  0.833000004       4.90448133E-11
  0.833999991       4.97847874E-11
  0.834999979       5.04654790E-11
  0.836000025       5.10977198E-11
  0.837000012       5.16949886E-11
  0.838000000       5.22728943E-11
  0.838999987       5.28485797E-11
  0.839999974       5.34400788E-11
  0.841000021       5.40656686E-11
  0.842000008       5.47432065E-11
  0.842999995       5.54895054E-11
  0.843999982       5.63197336E-11
  0.845000029       5.72468913E-11
  0.846000016       5.82813936E-11
  0.847000003       5.94307589E-11
  0.847999990       6.06993761E-11
  0.848999977       6.20883969E-11
  0.850000024       6.35957398E-11
  0.851000011       6.52162144E-11
  0.851999998       6.69417577E-11
  0.852999985       6.87617532E-11
  0.853999972       7.06634196E-11
  0.855000019       7.26322752E-11
  0.856000006       7.46526313E-11