   0.00000000       0.00000000    
   1.00000005E-03   0.00000000    
   2.00000009E-03   0.00000000    
   3.00000003E-03   0.00000000    
   4.00000019E-03   0.00000000    
   4.99999989E-03   0.00000000    
   6.00000005E-03   0.00000000    
   7.00000022E-03   0.00000000    
   8.00000038E-03   0.00000000    
   8.99999961E-03   0.00000000    
   9.99999978E-03   0.00000000    
   1.09999999E-02   0.00000000    
   1.20000001E-02   0.00000000    
   1.30000003E-02   1.29318829E-37
   1.40000004E-02   6.46578573E-37
   1.49999997E-02   1.05344668E-36
   1.60000008E-02   1.85716879E-36
   1.70000009E-02   3.73874609E-36
   1.79999992E-02   2.46464159E-36
   1.89999994E-02  -2.26037117E-35
   1.99999996E-02  -1.40254832E-34
   2.09999997E-02  -5.43672061E-34
   2.19999999E-02  -1.71990950E-33
   2.30000000E-02  -4.77070929E-33
   2.40000002E-02  -1.20845624E-32
   2.50000004E-02  -2.85613683E-32
   2.60000005E-02  -6.36054939E-32
   2.70000007E-02  -1.34246756E-31
   2.80000009E-02  -2.69738643E-31
   2.89999992E-02  -5.17810622E-31
   2.99999993E-02  -9.52320730E-31
   3.09999995E-02  -1.68115177E-30
   3.20000015E-02  -2.85165864E-30
   3.29999998E-02  -4.64864306E-30
   3.40000018E-02  -7.27624458E-30
   3.50000001E-02  -1.09104533E-29
   3.59999985E-02  -1.56031622E-29
   3.70000005E-02  -2.11122066E-29
   3.79999988E-02  -2.66256866E-29
   3.90000008E-02  -3.03445700E-29
   3.99999991E-02  -2.88877394E-29
   4.10000011E-02  -1.64915786E-29
   4.19999994E-02   1.60037827E-29
   4.30000015E-02   8.23525116E-29
   4.39999998E-02   2.02197198E-28
   4.50000018E-02   4.02285334E-28
   4.60000001E-02   7.17319926E-28
   4.69999984E-02   1.19001382E-27
   4.80000004E-02   1.86975230E-27
   4.89999987E-02   2.80909902E-27
   5.00000007E-02   4.05722218E-27
   5.09999990E-02   5.64921629E-27
   5.20000011E-02   7.59028096E-27
   5.29999994E-02   9.83387456E-27
   5.40000014E-02   1.22533225E-26
   5.49999997E-02   1.46070200E-26
   5.60000017E-02   1.64984003E-26
   5.70000000E-02   1.73332355E-26
   5.79999983E-02   1.62787041E-26
   5.90000004E-02   1.22308669E-26
   5.99999987E-02   3.79973074E-27
   6.10000007E-02  -1.06763457E-26
   6.19999990E-02  -3.30727223E-26
   6.30000010E-02  -6.53610333E-26
   6.40000030E-02  -1.09415575E-25
   6.49999976E-02  -1.66727971E-25
   6.59999996E-02  -2.38017947E-25
   6.70000017E-02  -3.22734706E-25
   6.80000037E-02  -4.18453831E-25
   6.89999983E-02  -5.20189080E-25
   7.00000003E-02  -6.19656848E-25
   7.10000023E-02  -7.04555094E-25
   7.19999969E-02  -7.57943523E-25
   7.29999989E-02  -7.57839838E-25
   7.40000010E-02  -6.77174422E-25
   7.50000030E-02  -4.84268102E-25
   7.59999976E-02  -1.44013017E-25
   7.69999996E-02   3.80061401E-25
   7.80000016E-02   1.12267183E-24
   7.90000036E-02   2.11248786E-24
   7.99999982E-02   3.36660354E-24
   8.10000002E-02   4.88381814E-24
   8.20000023E-02   6.63690452E-24
   8.29999968E-02   8.56421399E-24
   8.39999989E-02   1.05611570E-23
   8.50000009E-02   1.24723414E-23
   8.60000029E-02   1.40853465E-23
   8.69999975E-02   1.51273513E-23
   8.79999995E-02   1.52659952E-23
   8.90000015E-02   1.41159780E-23
   9.00000036E-02   1.12529068E-23
   9.09999982E-02   6.23578768E-24
   9.20000002E-02  -1.36074779E-24
   9.30000022E-02  -1.19038432E-23
   9.39999968E-02  -2.56495347E-23
   9.49999988E-02  -4.26805872E-23
   9.60000008E-02  -6.28371950E-23
   9.70000029E-02  -8.56440221E-23
   9.79999974E-02  -1.10238477E-22
   9.89999995E-02  -1.35306634E-22
  0.100000001      -1.59034535E-22
  0.101000004      -1.79084022E-22
  0.101999998      -1.92602675E-22
  0.103000000      -1.96278009E-22
  0.104000002      -1.86445356E-22
  0.104999997      -1.59257461E-22
  0.105999999      -1.10921328E-22
  0.107000001      -3.80040241E-23
  0.108000003       6.21955924E-23
  0.108999997       1.91218482E-22
  0.109999999       3.48976590E-22
  0.111000001       5.33267498E-22
  0.112000003       7.39304587E-22
  0.112999998       9.59302218E-22
  0.114000000       1.18216237E-21
  0.115000002       1.39331405E-21
  0.115999997       1.57475892E-21
  0.116999999       1.70537581E-21
  0.118000001       1.76153160E-21
  0.119000003       1.71803475E-21
  0.119999997       1.54945348E-21
  0.120999999       1.23179835E-21
  0.122000001       7.44543381E-22
  0.123000003       7.29289916E-23
  0.123999998      -7.89545611E-22
  0.125000000      -1.83856684E-21
  0.126000002      -3.05655111E-21
  0.127000004      -4.41048381E-21
  0.128000006      -5.85027244E-21
  0.128999993      -7.30784991E-21
  0.129999995      -8.69726453E-21
  0.130999997      -9.91598107E-21
  0.131999999      -1.08475844E-20
  0.133000001      -1.13660182E-20
  0.134000003      -1.13414241E-20
  0.135000005      -1.06475367E-20
  0.136000007      -9.17049424E-21
  0.136999995      -6.81877371E-21
  0.137999997      -3.53383351E-21
  0.138999999       6.99084546E-22
  0.140000001       5.84069322E-21
  0.141000003       1.17887131E-20
  0.142000005       1.83711159E-20
  0.143000007       2.53424552E-20
  0.143999994       3.23841339E-20
  0.144999996       3.91094031E-20
  0.145999998       4.50736984E-20
  0.147000000       4.97906765E-20
  0.148000002       5.27540090E-20
  0.149000004       5.34646218E-20
  0.150000006       5.14626218E-20
  0.150999993       4.63626849E-20
  0.151999995       3.78912407E-20
  0.152999997       2.59233105E-20
  0.153999999       1.05164989E-20
  0.155000001      -8.06064969E-21
  0.156000003      -2.93088476E-20
  0.157000005      -5.24897022E-20
  0.158000007      -7.66314337E-20
  0.158999994      -1.00550809E-19
  0.159999996      -1.22892776E-19
  0.160999998      -1.42188237E-19
  0.162000000      -1.56929242E-19
  0.163000003      -1.65659733E-19
  0.164000005      -1.67078115E-19
  0.165000007      -1.60146910E-19
  0.165999994      -1.44203029E-19
  0.166999996      -1.19061094E-19
  0.167999998      -8.51012978E-20
  0.169000000      -4.33327773E-20
  0.170000002       4.57637997E-21
  0.171000004       5.63107790E-20
  0.172000006       1.08967888E-19
  0.172999993       1.59171341E-19
  0.173999995       2.03239194E-19
  0.174999997       2.37405359E-19
  0.175999999       2.58088132E-19
  0.177000001       2.62195445E-19
  0.178000003       2.47451752E-19
  0.179000005       2.12726904E-19
  0.180000007       1.58343411E-19
  0.180999994       8.63355289E-20
  0.181999996       6.31710725E-22
  0.182999998      -9.28681878E-20
  0.184000000      -1.86347830E-19
  0.185000002      -2.70284419E-19
  0.186000004      -3.33830088E-19
  0.187000006      -3.65372889E-19
  0.187999994      -3.53274002E-19
  0.188999996      -2.86765346E-19
  0.189999998      -1.56977658E-19
  0.191000000       4.19463482E-20
  0.192000002       3.11713424E-19
  0.193000004       6.48789601E-19
  0.194000006       1.04344305E-18
  0.194999993       1.47901310E-18
  0.195999995       1.93150209E-18
  0.196999997       2.36958315E-18
  0.197999999       2.75510949E-18
  0.199000001       3.04419443E-18
  0.200000003       3.18890761E-18
  0.201000005       3.13960062E-18
  0.202000007       2.84784099E-18
  0.202999994       2.26988700E-18
  0.203999996       1.37058947E-18
  0.204999998       1.27559626E-19
  0.206000000      -1.46460661E-18
  0.207000002      -3.39030169E-18
  0.208000004      -5.60936278E-18
  0.209000006      -8.05432463E-18
  0.209999993      -1.06287895E-17
  0.210999995      -1.32072322E-17
  0.211999997      -1.56365128E-17
  0.213000000      -1.77393399E-17
  0.214000002      -1.93198455E-17
  0.215000004      -2.01713204E-17
  0.216000006      -2.00860728E-17
  0.216999993      -1.88672139E-17
  0.217999995      -1.63420316E-17
  0.218999997      -1.23764864E-17
  0.219999999      -6.89017834E-18
  0.221000001       1.28971520E-19
  0.222000003       8.61120578E-18
  0.223000005       1.83935587E-17
  0.224000007       2.92116253E-17
  0.224999994       4.06954796E-17
  0.225999996       5.23706542E-17
  0.226999998       6.36650213E-17
  0.228000000       7.39221270E-17
  0.229000002       8.24213946E-17
  0.230000004       8.84051728E-17
  0.231000006       9.11122901E-17
  0.231999993       8.98173753E-17
  0.232999995       8.38747642E-17
  0.233999997       7.27653447E-17
  0.234999999       5.61443414E-17
  0.236000001       3.38876309E-17
  0.237000003       6.13392144E-18
  0.238000005      -2.66800489E-17
  0.238999993      -6.37942335E-17
  0.239999995      -1.04112711E-16
  0.240999997      -1.46206383E-16
  0.241999999      -1.88333170E-16
  0.243000001      -2.28477053E-16
  0.244000003      -2.64406893E-16
  0.245000005      -2.93754811E-16
  0.246000007      -3.14112825E-16
  0.246999994      -3.23145610E-16
  0.247999996      -3.18715840E-16
  0.248999998      -2.99017453E-16
  0.250000000      -2.62711345E-16
  0.250999987      -2.09056811E-16
  0.252000004      -1.38031748E-16
  0.252999991      -5.04339166E-17
  0.254000008       5.20442619E-17
  0.254999995       1.66774660E-16
  0.256000012       2.90192641E-16
  0.256999999       4.17841829E-16
  0.257999986       5.44468014E-16
  0.259000003       6.64164146E-16
  0.259999990       7.70565513E-16
  0.261000007       8.57092046E-16
  0.261999995       9.17231650E-16
  0.263000011       9.44856041E-16
  0.263999999       9.34557179E-16
  0.264999986       8.81991056E-16
  0.266000003       7.84212696E-16
  0.266999990       6.39984584E-16
  0.268000007       4.50041416E-16
  0.268999994       2.17292432E-16
  0.270000011      -5.30553645E-17
  0.270999998      -3.53468649E-16
  0.272000015      -6.74165646E-16
  0.273000002      -1.00330926E-15
  0.273999989      -1.32731842E-15
  0.275000006      -1.63129768E-15
  0.275999993      -1.89957557E-15
  0.277000010      -2.11633977E-15
  0.277999997      -2.26634804E-15
  0.279000014      -2.33569018E-15
  0.280000001      -2.31257041E-15
  0.280999988      -2.18807393E-15
  0.282000005      -1.95688052E-15
  0.282999992      -1.61788640E-15
  0.284000009      -1.17469420E-15
  0.284999996      -6.35934549E-16
  0.286000013      -1.53875976E-17
  0.287000000       6.68122119E-16
  0.287999988       1.39107512E-15
  0.289000005       2.12585915E-15
  0.289999992       2.84161872E-15
  0.291000009       3.50533976E-15
  0.291999996       4.08313715E-15
  0.293000013       4.54170850E-15
  0.294000000       4.84989678E-15
  0.294999987       4.98030428E-15
  0.296000004       4.91088442E-15
  0.296999991       4.62643297E-15
  0.298000008       4.11990346E-15
  0.298999995       3.39346767E-15
  0.300000012       2.45924751E-15
  0.300999999       1.33965566E-15
  0.301999986       6.72943324E-17
  0.303000003      -1.31562301E-15
  0.303999990      -2.75834119E-15
  0.305000007      -4.20311767E-15
  0.305999994      -5.58722880E-15
  0.307000011      -6.84537850E-15
  0.307999998      -7.91242614E-15
  0.308999985      -8.72633417E-15
  0.310000002      -9.23122340E-15
  0.310999990      -9.38039184E-15
  0.312000006      -9.13916363E-15
  0.312999994      -8.48741667E-15
  0.314000010      -7.42164847E-15
  0.314999998      -5.95644580E-15
  0.316000015      -4.12524569E-15
  0.317000002      -1.98028976E-15
  0.317999989       4.08280045E-16
  0.319000006       2.95421375E-15
  0.319999993       5.55781854E-15
  0.321000010       8.10943753E-15
  0.321999997       1.04936438E-14
  0.323000014       1.25940103E-14
  0.324000001       1.42982719E-14
  0.324999988       1.55036760E-14
  0.326000005       1.61222896E-14
  0.326999992       1.60860010E-14
  0.328000009       1.53509797E-14
  0.328999996       1.39013396E-14
  0.330000013       1.17517834E-14
  0.331000000       8.94903861E-15
  0.331999987       5.57192884E-15
  0.333000004       1.72998899E-15
  0.333999991      -2.43940809E-15
  0.335000008      -6.77538436E-15
  0.335999995      -1.10992453E-14
  0.337000012      -1.52213464E-14
  0.338000000      -1.89488961E-14
  0.338999987      -2.20944106E-14
  0.340000004      -2.44844394E-14
  0.340999991      -2.59682141E-14
  0.342000008      -2.64257847E-14
  0.342999995      -2.57752583E-14
  0.344000012      -2.39787336E-14
  0.344999999      -2.10465936E-14
  0.345999986      -1.70398516E-14
  0.347000003      -1.20703330E-14
  0.347999990      -6.29855605E-15
  0.349000007       7.07291569E-17
  0.349999994       6.79525490E-15
  0.351000011       1.36040310E-14
  0.351999998       2.02079259E-14
  0.352999985       2.63116352E-14
  0.354000002       3.16265806E-14
  0.354999989       3.58841544E-14
  0.356000006       3.88487460E-14
  0.356999993       4.03299152E-14
  0.358000010       4.01931160E-14
  0.358999997       3.83684004E-14
  0.360000014       3.48565713E-14
  0.361000001       2.97323980E-14
  0.361999989       2.31446129E-14
  0.363000005       1.53124854E-14
  0.363999993       6.51903238E-15
  0.365000010      -2.89900880E-15
  0.365999997      -1.25641210E-14
  0.367000014      -2.20733720E-14
  0.368000001      -3.10155954E-14
  0.368999988      -3.89896652E-14
  0.370000005      -4.56230343E-14
  0.370999992      -5.05896730E-14
  0.372000009      -5.36265537E-14
  0.372999996      -5.45478173E-14
  0.374000013      -5.32558549E-14
  0.375000000      -4.97486573E-14
  0.375999987      -4.41229423E-14
  0.377000004      -3.65727380E-14
  0.377999991      -2.73833063E-14
  0.379000008      -1.69205470E-14
  0.379999995      -5.61620876E-15
  0.381000012       6.05052194E-15
  0.381999999       1.75742853E-14
  0.382999986       2.84467376E-14
  0.384000003       3.81805793E-14
  0.384999990       4.63332884E-14
  0.386000007       5.25293547E-14
  0.386999995       5.64798791E-14
  0.388000011       5.79984533E-14
  0.388999999       5.70123918E-14
  0.389999986       5.35686302E-14
  0.391000003       4.78337700E-14
  0.391999990       4.00880772E-14
  0.393000007       3.07135637E-14
  0.393999994       2.01765366E-14
  0.395000011       9.00531548E-15
  0.395999998      -2.23585908E-15
  0.397000015      -1.29755300E-14
  0.398000002      -2.26649178E-14
  0.398999989      -3.08074895E-14
  0.400000006      -3.69866017E-14
  0.400999993      -4.08897363E-14
  0.402000010      -4.23278423E-14
  0.402999997      -4.12486106E-14
  0.404000014      -3.77427276E-14
  0.405000001      -3.20425042E-14
  0.405999988      -2.45126185E-14
  0.407000005      -1.56331772E-14
  0.407999992      -5.97570521E-15
  0.409000009       3.82693424E-15
  0.409999996       1.31152989E-14
  0.411000013       2.12410943E-14
  0.412000000       2.76059184E-14
  0.412999988       3.16989172E-14
  0.414000005       3.31312058E-14
  0.414999992       3.16649884E-14
  0.416000009       2.72354618E-14
  0.416999996       1.99639042E-14
  0.418000013       1.01607616E-14
  0.419000000      -1.68199864E-15
  0.419999987      -1.49094418E-14
  0.421000004      -2.87326959E-14
  0.421999991      -4.22674557E-14
  0.423000008      -5.45803603E-14
  0.423999995      -6.47411270E-14
  0.425000012      -7.18778878E-14
  0.425999999      -7.52328430E-14
  0.426999986      -7.42151430E-14
  0.428000003      -6.84479058E-14
  0.428999990      -5.78063801E-14
  0.430000007      -4.24445499E-14
  0.430999994      -2.28079206E-14
  0.432000011       3.69061572E-16
  0.432999998       2.60819435E-14
  0.433999985       5.30915948E-14
  0.435000002       7.99751433E-14
  0.435999990       1.05190847E-13
  0.437000006       1.27154309E-13
  0.437999994       1.44322840E-13
  0.439000010       1.55283853E-13
  0.439999998       1.58842950E-13
  0.441000015       1.54106952E-13
  0.442000002       1.40557095E-13
  0.442999989       1.18107794E-13
  0.444000006       8.71468899E-14
  0.444999993       4.85538801E-14
  0.446000010       3.69361761E-15
  0.446999997      -4.56159124E-14
  0.448000014      -9.71619839E-14
  0.449000001      -1.48420474E-13
  0.449999988      -1.96661806E-13
  0.451000005      -2.39075334E-13
  0.451999992      -2.72907619E-13
  0.453000009      -2.95608075E-13
  0.453999996      -3.04975419E-13
  0.455000013      -2.99297452E-13
  0.456000000      -2.77476691E-13
  0.456999987      -2.39134667E-13
  0.458000004      -1.84687972E-13
  0.458999991      -1.15390512E-13
  0.460000008      -3.33374821E-14
  0.460999995       5.85718269E-14
  0.462000012       1.56713320E-13
  0.463000000       2.56858499E-13
  0.463999987       3.54332828E-13
  0.465000004       4.44207117E-13
  0.465999991       5.21514472E-13
  0.467000008       5.81484513E-13
  0.467999995       6.19784335E-13
  0.469000012       6.32755404E-13
  0.469999999       6.17634741E-13
  0.470999986       5.72748771E-13
  0.472000003       4.97669018E-13
  0.472999990       3.93320007E-13
  0.474000007       2.62031065E-13
  0.474999994       1.07526415E-13
  0.476000011      -6.51499796E-14
  0.476999998      -2.49775054E-13
  0.477999985      -4.39150235E-13
  0.479000002      -6.25362392E-13
  0.479999989      -8.00093119E-13
  0.481000006      -9.54965382E-13
  0.481999993      -1.08191320E-12
  0.483000010      -1.17355941E-12
  0.483999997      -1.22358395E-12
  0.485000014      -1.22706597E-12
  0.486000001      -1.18078279E-12
  0.486999989      -1.08344952E-12
  0.488000005      -9.35885592E-13
  0.488999993      -7.41097233E-13
  0.490000010      -5.04266984E-13
  0.490999997      -2.32647235E-13
  0.492000014       6.46432099E-14
  0.493000001       3.76914645E-13
  0.493999988       6.92285639E-13
  0.495000005       9.98132566E-13
  0.495999992       1.28159321E-12
  0.497000009       1.53010449E-12
  0.497999996       1.73195182E-12
  0.499000013       1.87680622E-12
  0.500000000       1.95622598E-12
  0.500999987       1.96409772E-12
  0.501999974       1.89699536E-12
  0.503000021       1.75443872E-12
  0.504000008       1.53903539E-12
  0.504999995       1.25649480E-12
  0.505999982       9.15509530E-13
  0.507000029       5.27503442E-13
  0.508000016       1.06252978E-13
  0.509000003      -3.32606962E-13
  0.509999990      -7.72174967E-13
  0.510999978      -1.19495017E-12
  0.512000024      -1.58354883E-12
  0.513000011      -1.92143979E-12
  0.513999999      -2.19366821E-12
  0.514999986      -2.38753505E-12
  0.515999973      -2.49320226E-12
  0.517000020      -2.50419282E-12
  0.518000007      -2.41776326E-12
  0.518999994      -2.23512593E-12
  0.519999981      -1.96150865E-12
  0.521000028      -1.60604386E-12
  0.522000015      -1.18148633E-12
  0.523000002      -7.03768315E-13
  0.523999989      -1.91405024E-13
  0.524999976       3.35225202E-13
  0.526000023       8.54700317E-13
  0.527000010       1.34543917E-12
  0.527999997       1.78661469E-12
  0.528999984       2.15905722E-12
  0.529999971       2.44610690E-12
  0.531000018       2.63437818E-12
  0.532000005       2.71440010E-12
  0.532999992       2.68110230E-12
  0.533999979       2.53412070E-12
  0.535000026       2.27790725E-12
  0.536000013       1.92163386E-12
  0.537000000       1.47888971E-12
  0.537999988       9.67181955E-13
  0.538999975       4.07257344E-13
  0.540000021      -1.77729332E-13
  0.541000009      -7.63166331E-13
  0.541999996      -1.32401631E-12
  0.542999983      -1.83588474E-12
  0.544000030      -2.27607755E-12
  0.545000017      -2.62460388E-12
  0.546000004      -2.86507753E-12
  0.546999991      -2.98547602E-12
  0.547999978      -2.97872230E-12
  0.549000025      -2.84305977E-12
  0.550000012      -2.58220268E-12
  0.550999999      -2.20525031E-12
  0.551999986      -1.72636580E-12
  0.552999973      -1.16423169E-12
  0.554000020      -5.41301270E-13
  0.555000007       1.17122430E-13
  0.555999994       7.83942572E-13
  0.556999981       1.43141358E-12
  0.558000028       2.03232656E-12
  0.559000015       2.56118260E-12
  0.560000002       2.99530301E-12
  0.560999990       3.31582461E-12
  0.561999977       3.50853786E-12
  0.563000023       3.56452671E-12
  0.564000010       3.48058171E-12
  0.564999998       3.25936500E-12
  0.565999985       2.90931884E-12
  0.566999972       2.44431949E-12
  0.568000019       1.88308982E-12
  0.569000006       1.24839613E-12
  0.569999993       5.66063689E-13
  0.570999980      -1.36146818E-13
  0.572000027      -8.29750765E-13
  0.573000014      -1.48678595E-12
  0.574000001      -2.08103673E-12
  0.574999988      -2.58918147E-12
  0.575999975      -2.99180992E-12
  0.577000022      -3.27426519E-12
  0.578000009      -3.42726932E-12
  0.578999996      -3.44730516E-12
  0.579999983      -3.33673453E-12
  0.580999970      -3.10364776E-12
  0.582000017      -2.76145036E-12
  0.583000004      -2.32820490E-12
  0.583999991      -1.82575808E-12
  0.584999979      -1.27869286E-12
  0.586000025      -7.13154362E-13
  0.587000012      -1.55603612E-13
  0.588000000       3.68442283E-13
  0.588999987       8.35624213E-13
  0.589999974       1.22585232E-12
  0.591000021       1.52326068E-12
  0.592000008       1.71695991E-12
  0.592999995       1.80155066E-12
  0.593999982       1.77737187E-12
  0.595000029       1.65047023E-12
  0.596000016       1.43229048E-12
  0.597000003       1.13909934E-12
  0.597999990       7.91168617E-13
  0.598999977       4.11754344E-13
  0.600000024       2.59192217E-14
  0.601000011      -3.40746637E-13
  0.601999998      -6.63445427E-13
  0.602999985      -9.19469470E-13
  0.603999972      -1.08941393E-12
  0.605000019      -1.15824472E-12
  0.606000006      -1.11616803E-12
  0.606999993      -9.59256979E-13
  0.607999980      -6.89801515E-13
  0.609000027      -3.16359623E-13
  0.610000014       1.46497126E-13
  0.611000001       6.78736906E-13
  0.611999989       1.25569900E-12
  0.612999976       1.84916904E-12
  0.614000022       2.42865190E-12
  0.615000010       2.96278518E-12
  0.615999997       3.42083068E-12
  0.616999984       3.77417412E-12
  0.617999971       3.99776566E-12
  0.619000018       4.07142939E-12
  0.620000005       3.98098134E-12
  0.620999992       3.71909881E-12
  0.621999979       3.28589695E-12
  0.623000026       2.68917983E-12
  0.624000013       1.94434659E-12
  0.625000000       1.07395234E-12
  0.625999987       1.06934047E-13
  0.626999974      -9.22467181E-13
  0.628000021      -1.97604780E-12
  0.629000008      -3.01319126E-12
  0.629999995      -3.99255889E-12
  0.630999982      -4.87385132E-12
  0.632000029      -5.61956254E-12
  0.633000016      -6.19664953E-12
  0.634000003      -6.57804236E-12
  0.634999990      -6.74392486E-12
  0.635999978      -6.68272642E-12
  0.637000024      -6.39177817E-12
  0.638000011      -5.87759529E-12
  0.638999999      -5.15577555E-12
  0.639999986      -4.25050490E-12
  0.640999973      -3.19368989E-12
  0.642000020      -2.02374901E-12
  0.643000007      -7.84109485E-13
  0.643999994       4.78527808E-13
  0.644999981       1.71608485E-12
  0.646000028       2.88108469E-12
  0.647000015       3.92862652E-12
  0.648000002       4.81827512E-12
  0.648999989       5.51577967E-12
  0.649999976       5.99455078E-12
  0.651000023       6.23682659E-12
  0.652000010       6.23447691E-12
  0.652999997       5.98940992E-12
  0.653999984       5.51355663E-12
  0.654999971       4.82843236E-12
  0.656000018       3.96429244E-12
  0.657000005       2.95891111E-12
  0.657999992       1.85603442E-12
  0.658999979       7.03571045E-13
  0.660000026      -4.48404280E-13
  0.661000013      -1.54975251E-12
  0.662000000      -2.55238712E-12
  0.662999988      -3.41231817E-12
  0.663999975      -4.09153440E-12
  0.665000021      -4.55964433E-12
  0.666000009      -4.79520633E-12
  0.666999996      -4.78668711E-12
  0.667999983      -4.53300592E-12
  0.669000030      -4.04364389E-12
  0.670000017      -3.33830663E-12
  0.671000004      -2.44615179E-12
  0.671999991      -1.40461622E-12
  0.672999978      -2.57887461E-13
  0.674000025       9.44919056E-13
  0.675000012       2.15179784E-12
  0.675999999       3.31002456E-12
  0.676999986       4.36836938E-12
  0.677999973       5.27925577E-12
  0.679000020       6.00078017E-12
  0.680000007       6.49849966E-12
  0.680999994       6.74691769E-12
  0.681999981       6.73059872E-12
  0.683000028       6.44486721E-12
  0.684000015       5.89605751E-12
  0.685000002       5.10130306E-12
  0.685999990       4.08787414E-12
  0.686999977       2.89208544E-12
  0.688000023       1.55782331E-12
  0.689000010       1.34749579E-13
  0.689999998      -1.32374168E-12
  0.690999985      -2.76272841E-12
  0.691999972      -4.12803559E-12
  0.693000019      -5.36848170E-12
  0.694000006      -6.43800378E-12
  0.694999993      -7.29756967E-12
  0.695999980      -7.91679482E-12
  0.697000027      -8.27519303E-12
  0.698000014      -8.36300907E-12
  0.699000001      -8.18159429E-12
  0.699999988      -7.74330339E-12
  0.700999975      -7.07091980E-12
  0.702000022      -6.19663175E-12
  0.703000009      -5.16059851E-12
  0.703999996      -4.00916540E-12
  0.704999983      -2.79280635E-12
  0.705999970      -1.56387945E-12
  0.707000017      -3.74291364E-13
  0.708000004       7.26825663E-13
  0.708999991       1.69532606E-12
  0.709999979       2.49405162E-12
  0.711000025       3.09453114E-12
  0.712000012       3.47830206E-12
  0.713000000       3.63779124E-12
  0.713999987       3.57670989E-12
  0.714999974       3.30994021E-12
  0.716000021       2.86290869E-12
  0.717000008       2.27047070E-12
  0.717999995       1.57534489E-12
  0.718999982       8.26160321E-13
  0.720000029       7.51963867E-14
  0.721000016      -6.24089539E-13
  0.722000003      -1.21964114E-12
  0.722999990      -1.66337668E-12
  0.723999977      -1.91364199E-12
  0.725000024      -1.93743199E-12
  0.726000011      -1.71227637E-12
  0.726999998      -1.22769806E-12
  0.727999985      -4.86169319E-13
  0.728999972       4.96490165E-13
  0.730000019       1.69130530E-12
  0.731000006       3.05693513E-12
  0.731999993       4.54104246E-12
  0.732999980       6.08219985E-12
  0.734000027       7.61226585E-12
  0.735000014       9.05913972E-12
  0.736000001       1.03497913E-11
  0.736999989       1.14134370E-11
  0.737999976       1.21847376E-11
  0.739000022       1.26068765E-11
  0.740000010       1.26343849E-11
  0.740999997       1.22355858E-11
  0.741999984       1.13945442E-11
  0.742999971       1.01124222E-11
  0.744000018       8.40816305E-12
  0.745000005       6.31846095E-12
  0.745999992       3.89699384E-12
  0.746999979       1.21292332E-12
  0.748000026      -1.65129076E-12
  0.749000013      -4.60269366E-12
  0.750000000      -7.54115867E-12
  0.750999987      -1.03631097E-11
  0.751999974      -1.29654967E-11
  0.753000021      -1.52498777E-11
  0.754000008      -1.71264340E-11
  0.754999995      -1.85177550E-11
  0.755999982      -1.93622427E-11
  0.757000029      -1.96169712E-11
  0.758000016      -1.92598854E-11
  0.759000003      -1.82912244E-11
  0.759999990      -1.67341020E-11
  0.760999978      -1.46341897E-11
  0.762000024      -1.20585061E-11
  0.763000011      -9.09333546E-12
  0.763999999      -5.84133479E-12
  0.764999986      -2.41793911E-12
  0.765999973       1.05281344E-12
  0.767000020       4.44287836E-12
  0.768000007       7.62504816E-12
  0.768999994       1.04778547E-11
  0.769999981       1.28903277E-11
  0.771000028       1.47664294E-11
  0.772000015       1.60289716E-11
  0.773000002       1.66228541E-11
  0.773999989       1.65174836E-11
  0.774999976       1.57082663E-11
  0.776000023       1.42170954E-11
  0.777000010       1.20918015E-11
  0.777999997       9.40457868E-12
  0.778999984       6.24942849E-12
  0.779999971       2.73871876E-12
  0.781000018      -1.00102196E-12
  0.782000005      -4.83391018E-12
  0.782999992      -8.61992942E-12
  0.783999979      -1.22203593E-11
  0.785000026      -1.55032012E-11
  0.786000013      -1.83483766E-11
  0.787000000      -2.06524919E-11
  0.787999988      -2.23329705E-11
  0.788999975      -2.33313837E-11
  0.790000021      -2.36158385E-11
  0.791000009      -2.31823172E-11
  0.791999996      -2.20549117E-11
  0.792999983      -2.02849387E-11
  0.794000030      -1.79489600E-11
  0.795000017      -1.51457874E-11
  0.796000004      -1.19925857E-11
  0.796999991      -8.62023473E-12
  0.797999978      -5.16812981E-12
  0.799000025      -1.77863735E-12
  0.800000012       1.40857226E-12
  0.800999999       4.26208114E-12
  0.801999986       6.66394761E-12
  0.802999973       8.51437410E-12
  0.804000020       9.73563244E-12
  0.805000007       1.02750855E-11
  0.805999994       1.01071807E-11
  0.806999981       9.23433031E-12
  0.808000028       7.68664906E-12
  0.809000015       5.52056057E-12
  0.810000002       2.81633050E-12
  0.810999990      -3.25365386E-13
  0.811999977      -3.78769542E-12
  0.813000023      -7.44256306E-12
  0.814000010      -1.11559321E-11
  0.814999998      -1.47933558E-11
  0.815999985      -1.82254802E-11
  0.816999972      -2.13332910E-11
  0.818000019      -2.40128802E-11
  0.819000006      -2.61795238E-11
  0.819999993      -2.77709227E-11
  0.820999980      -2.87494542E-11
  0.822000027      -2.91033482E-11
  0.823000014      -2.88467514E-11
  0.824000001      -2.80186690E-11
  0.824999988      -2.66808554E-11
  0.825999975      -2.49147404E-11
  0.827000022      -2.28175187E-11
  0.828000009      -2.04976106E-11
  0.828999996      -1.80696760E-11
  0.829999983      -1.56493932E-11
  0.830999970      -1.33482583E-11
  0.832000017      -1.12686180E-11
  0.833000004      -9.49916534E-12
  0.833999991      -8.11109253E-12
  0.834999979      -7.15506647E-12
  0.836000025      -6.65917018E-12
  0.837000012      -6.62788747E-12
  0.838000000      -7.04217977E-12
  0.838999987      -7.86065137E-12
  0.839999974      -9.02174516E-12
  0.841000021      -1.04468699E-11
  0.842000008      -1.20443221E-11
  0.842999995      -1.37138209E-11
  0.843999982      -1.53514475E-11
  0.845000029      -1.68547693E-11
  0.846000016      -1.81279193E-11
  0.847000003      -1.90863957E-11
  0.847999990      -1.96613559E-11
  0.848999977      -1.98032181E-11
  0.850000024      -1.94843950E-11
  0.851000011      -1.87010390E-11
  0.851999998      -1.74736978E-11
  0.852999985      -1.58468464E-11
  0.853999972      -1.38873062E-11
  0.855000019      -1.16816227E-11
  0.856000006      -9.33249224E-12