   0.00000000       0.00000000    
   1.00000005E-03   0.00000000    
   2.00000009E-03   0.00000000    
   3.00000003E-03   0.00000000    
   4.00000019E-03   0.00000000    
   4.99999989E-03   0.00000000    
   6.00000005E-03   0.00000000    
   7.00000022E-03   0.00000000    
   8.00000038E-03   0.00000000    
   8.99999961E-03   0.00000000    
   9.99999978E-03   0.00000000    
   1.09999999E-02   0.00000000    
   1.20000001E-02   0.00000000    
   1.30000003E-02   1.38333017E-38
   1.40000004E-02   1.48830408E-37
   1.49999997E-02   7.62378559E-37
   1.60000008E-02   3.15045903E-36
   1.70000009E-02   1.14332294E-35
   1.79999992E-02   3.75381235E-35
   1.89999994E-02   1.13132997E-34
   1.99999996E-02   3.16402488E-34
   2.09999997E-02   8.28177555E-34
   2.19999999E-02   2.04288631E-33
   2.30000000E-02   4.77566437E-33
   2.40000002E-02   1.06293577E-32
   2.50000004E-02   2.26130421E-32
   2.60000005E-02   4.61335571E-32
   2.70000007E-02   9.05063412E-32
   2.80000009E-02   1.71136437E-31
   2.89999992E-02   3.12482133E-31
   2.99999993E-02   5.51796985E-31
   3.09999995E-02   9.43404746E-31
   3.20000015E-02   1.56283874E-30
   3.29999998E-02   2.50950553E-30
   3.40000018E-02   3.90555572E-30
   3.50000001E-02   5.88731732E-30
   3.59999985E-02   8.58396606E-30
   3.70000005E-02   1.20761510E-29
   3.79999988E-02   1.63252385E-29
   3.90000008E-02   2.10620225E-29
   3.99999991E-02   2.56227044E-29
   4.10000011E-02   2.87203521E-29
   4.19999994E-02   2.81430576E-29
   4.30000015E-02   2.03764697E-29
   4.39999998E-02   1.60071109E-31
   4.50000018E-02  -3.99956848E-29
   4.60000001E-02  -1.10279050E-28
   4.69999984E-02  -2.23947808E-28
   4.80000004E-02  -3.97474915E-28
   4.89999987E-02  -6.50295398E-28
   5.00000007E-02  -1.00393143E-27
   5.09999990E-02  -1.48022556E-27
   5.20000011E-02  -2.09837752E-27
   5.29999994E-02  -2.87046473E-27
   5.40000014E-02  -3.79515512E-27
   5.49999997E-02  -4.84938721E-27
   5.60000017E-02  -5.97795173E-27
   5.70000000E-02  -7.08112903E-27
   5.79999983E-02  -8.00087613E-27
   5.90000004E-02  -8.50650053E-27
   5.99999987E-02  -8.28131156E-27
   6.10000007E-02  -6.91237288E-27
   6.19999990E-02  -3.88620962E-27
   6.30000010E-02   1.40598895E-27
   6.40000030E-02   9.64946908E-27
   6.49999976E-02   2.15686558E-26
   6.59999996E-02   3.78667348E-26
   6.70000017E-02   5.91375494E-26
   6.80000037E-02   8.57462345E-26
   6.89999983E-02   1.17676735E-25
   7.00000003E-02   1.54347009E-25
   7.10000023E-02   1.94396404E-25
   7.19999969E-02   2.35454568E-25
   7.29999989E-02   2.73906977E-25
   7.40000010E-02   3.04679233E-25
   7.50000030E-02   3.21068928E-25
   7.59999976E-02   3.14661849E-25
   7.69999996E-02   2.75375836E-25
   7.80000016E-02   1.91680159E-25
   7.90000036E-02   5.10417288E-26
   7.99999982E-02  -1.59352294E-25
   8.10000002E-02  -4.51552216E-25
   8.20000023E-02  -8.35452805E-25
   8.29999968E-02  -1.31703839E-24
   8.39999989E-02  -1.89628357E-24
   8.50000009E-02  -2.56476134E-24
   8.60000029E-02  -3.30305843E-24
   8.69999975E-02  -4.07814582E-24
   8.79999995E-02  -4.84090924E-24
   8.90000015E-02  -5.52410577E-24
   9.00000036E-02  -6.04106250E-24
   9.09999982E-02  -6.28548513E-24
   9.20000002E-02  -6.13277152E-24
   9.30000022E-02  -5.44324359E-24
   9.39999968E-02  -4.06768158E-24
   9.49999988E-02  -1.85549295E-24
   9.60000008E-02   1.33424818E-24
   9.70000029E-02   5.61881523E-24
   9.79999974E-02   1.10750147E-23
   9.89999995E-02   1.77199175E-23
  0.100000001       2.54898124E-23
  0.101000004       3.42183942E-23
  0.101999998       4.36155578E-23
  0.103000000       5.32485213E-23
  0.104000002       6.25273936E-23
  0.104999997       7.06974682E-23
  0.105999999       7.68407951E-23
  0.107000001       7.98896794E-23
  0.108000003       7.86544431E-23
  0.108999997       7.18677213E-23
  0.109999999       5.82467377E-23
  0.111000001       3.65743620E-23
  0.112000003       5.79856350E-24
  0.112999998      -3.48514330E-23
  0.114000000      -8.57356562E-23
  0.115000002      -1.46665550E-22
  0.115999997      -2.16764815E-22
  0.116999999      -2.94337635E-22
  0.118000001      -3.76754743E-22
  0.119000003      -4.60369430E-22
  0.119999997      -5.40476298E-22
  0.120999999      -6.11325954E-22
  0.122000001      -6.66208862E-22
  0.123000003      -6.97619259E-22
  0.123999998      -6.97509197E-22
  0.125000000      -6.57637062E-22
  0.126000002      -5.70012664E-22
  0.127000004      -4.27432859E-22
  0.128000006      -2.24096551E-22
  0.128999993       4.37202112E-23
  0.129999995       3.76956868E-22
  0.130999997       7.73063694E-22
  0.131999999       1.22534236E-21
  0.133000001       1.72238168E-21
  0.134000003       2.24764198E-21
  0.135000005       2.77924467E-21
  0.136000007       3.29002263E-21
  0.136999995       3.74788508E-21
  0.137999997       4.11653742E-21
  0.138999999       4.35659227E-21
  0.140000001       4.42708316E-21
  0.141000003       4.28737809E-21
  0.142000005       3.89946229E-21
  0.143000007       3.23053551E-21
  0.143999994       2.25583503E-21
  0.144999996       9.61573531E-22
  0.145999998      -6.52154668E-22
  0.147000000      -2.56866298E-21
  0.148000002      -4.75234811E-21
  0.149000004      -7.14694874E-21
  0.150000006      -9.67459297E-21
  0.150999993      -1.22358261E-20
  0.151999995      -1.47107949E-20
  0.152999997      -1.69617294E-20
  0.153999999      -1.88368138E-20
  0.155000001      -2.01754731E-20
  0.156000003      -2.08150501E-20
  0.157000005      -2.05987279E-20
  0.158000007      -1.93844946E-20
  0.158999994      -1.70548519E-20
  0.159999996      -1.35268611E-20
  0.160999998      -8.76205443E-21
  0.162000000      -2.77566291E-21
  0.163000003       4.35542258E-21
  0.164000005       1.24865870E-20
  0.165000007       2.14019267E-20
  0.165999994       3.08137638E-20
  0.166999996       4.03657160E-20
  0.167999998       4.96397128E-20
  0.169000000       5.81671662E-20
  0.170000002       6.54443070E-20
  0.171000004       7.09515915E-20
  0.172000006       7.41766072E-20
  0.172999993       7.46399317E-20
  0.173999995       7.19229601E-20
  0.174999997       6.56965713E-20
  0.175999999       5.57492720E-20
  0.177000001       4.20133273E-20
  0.178000003       2.45872652E-20
  0.179000005       3.75312968E-21
  0.180000007      -2.00130808E-20
  0.180999994      -4.60391604E-20
  0.181999996      -7.34638360E-20
  0.182999998      -1.01254067E-19
  0.184000000      -1.28232938E-19
  0.185000002      -1.53117943E-19
  0.186000004      -1.74569140E-19
  0.187000006      -1.91245747E-19
  0.187999994      -2.01869448E-19
  0.188999996      -2.05291895E-19
  0.189999998      -2.00563627E-19
  0.191000000      -1.87000889E-19
  0.192000002      -1.64246999E-19
  0.193000004      -1.32324276E-19
  0.194000006      -9.16731767E-20
  0.194999993      -4.31750475E-20
  0.195999995       1.18442982E-20
  0.196999997       7.16323547E-20
  0.197999999       1.34050473E-19
  0.199000001       1.96637311E-19
  0.200000003       2.56694539E-19
  0.201000005       3.11392348E-19
  0.202000007       3.57891841E-19
  0.202999994       3.93479064E-19
  0.203999996       4.15705769E-19
  0.204999998       4.22529725E-19
  0.206000000       4.12447737E-19
  0.207000002       3.84613730E-19
  0.208000004       3.38934542E-19
  0.209000006       2.76136567E-19
  0.209999993       1.97796901E-19
  0.210999995       1.06334598E-19
  0.211999997       4.95876844E-21
  0.213000000      -1.02427494E-19
  0.214000002      -2.11366114E-19
  0.215000004      -3.17022424E-19
  0.216000006      -4.14396911E-19
  0.216999993      -4.98561814E-19
  0.217999995      -5.64912556E-19
  0.218999997      -6.09421542E-19
  0.219999999      -6.28881225E-19
  0.221000001      -6.21122839E-19
  0.222000003      -5.85196834E-19
  0.223000005      -5.21502428E-19
  0.224000007      -4.31855643E-19
  0.224999994      -3.19486983E-19
  0.225999996      -1.88963388E-19
  0.226999998      -4.60334024E-20
  0.228000000       1.02602417E-19
  0.229000002       2.49588567E-19
  0.230000004       3.87267997E-19
  0.231000006       5.08076563E-19
  0.231999993       6.04959472E-19
  0.232999995       6.71788220E-19
  0.233999997       7.03754512E-19
  0.234999999       6.97717541E-19
  0.236000001       6.52480791E-19
  0.237000003       5.68977839E-19
  0.238000005       4.50349592E-19
  0.238999993       3.01899908E-19
  0.239999995       1.30923924E-19
  0.240999997      -5.35917556E-20
  0.241999999      -2.41388131E-19
  0.243000001      -4.21457311E-19
  0.244000003      -5.82647102E-19
  0.245000005      -7.14317453E-19
  0.246000007      -8.07013122E-19
  0.246999994      -8.53113966E-19
  0.247999996      -8.47421515E-19
  0.248999998      -7.87641224E-19
  0.250000000      -6.74722540E-19
  0.250999987      -5.13024085E-19
  0.252000004      -3.10279351E-19
  0.252999991      -7.73482115E-20
  0.254000008       1.72249519E-19
  0.254999995       4.23007628E-19
  0.256000012       6.58291166E-19
  0.256999999       8.61340639E-19
  0.257999986       1.01637326E-18
  0.259000003       1.10972131E-18
  0.259999990       1.13093819E-18
  0.261000007       1.07380038E-18
  0.261999995       9.37130390E-19
  0.263000011       7.25370861E-19
  0.263999999       4.48848880E-19
  0.264999986       1.23680485E-19
  0.266000003      -2.28715103E-19
  0.266999990      -5.82503224E-19
  0.268000007      -9.08709808E-19
  0.268999994      -1.17684785E-18
  0.270000011      -1.35683118E-18
  0.270999998      -1.42108554E-18
  0.272000015      -1.34674951E-18
  0.273000002      -1.11783554E-18
  0.273999989      -7.27214491E-19
  0.275000006      -1.78278619E-19
  0.275999993       5.13855660E-19
  0.277000010       1.32173360E-18
  0.277999997       2.20564257E-18
  0.279000014       3.11446508E-18
  0.280000001       3.98734349E-18
  0.280999988       4.75615328E-18
  0.282000005       5.34873389E-18
  0.282999992       5.69277319E-18
  0.284000009       5.72019754E-18
  0.284999996       5.37186930E-18
  0.286000013       4.60235311E-18
  0.287000000       3.38448661E-18
  0.287999988       1.71346545E-18
  0.289000005      -3.89840710E-19
  0.289999992      -2.87662418E-18
  0.291000009      -5.66917497E-18
  0.291999996      -8.66141812E-18
  0.293000013      -1.17210963E-17
  0.294000000      -1.46936658E-17
  0.294999987      -1.74078704E-17
  0.296000004      -1.96828983E-17
  0.296999991      -2.13368906E-17
  0.298000008      -2.21964835E-17
  0.298999995      -2.21070024E-17
  0.300000012      -2.09428152E-17
  0.300999999      -1.86173061E-17
  0.301999986      -1.50919202E-17
  0.303000003      -1.03836603E-17
  0.303999990      -4.57053312E-18
  0.305000007       2.20559956E-18
  0.305999994       9.73915753E-18
  0.307000011       1.77642645E-17
  0.307999998       2.59616062E-17
  0.308999985       3.39687178E-17
  0.310000002       4.13935009E-17
  0.310999990       4.78305708E-17
  0.312000006       5.28799096E-17
  0.312999994       5.61670525E-17
  0.314000010       5.73639167E-17
  0.314999998       5.62092983E-17
  0.316000015       5.25279773E-17
  0.317000002       4.62472710E-17
  0.317999989       3.74100274E-17
  0.319000006       2.61830573E-17
  0.319999993       1.28601960E-17
  0.321000010      -2.14066505E-18
  0.321999997      -1.82869169E-17
  0.323000014      -3.49470309E-17
  0.324000001      -5.14125904E-17
  0.324999988      -6.69259525E-17
  0.326000005      -8.07126247E-17
  0.326999992      -9.20171728E-17
  0.328000009      -1.00141099E-16
  0.328999996      -1.04480965E-16
  0.330000013      -1.04564967E-16
  0.331000000      -1.00085856E-16
  0.331999987      -9.09284575E-17
  0.333000004      -7.71898346E-17
  0.333999991      -5.91906359E-17
  0.335000008      -3.74763342E-17
  0.335999995      -1.28075120E-17
  0.337000012       1.38610953E-17
  0.338000000       4.14126783E-17
  0.338999987       6.86107275E-17
  0.340000004       9.41504186E-17
  0.340999991       1.16717024E-16
  0.342000008       1.35049107E-16
  0.342999995       1.48003523E-16
  0.344000012       1.54619326E-16
  0.344999999       1.54177202E-16
  0.345999986       1.46251184E-16
  0.347000003       1.30749541E-16
  0.347999990       1.07942094E-16
  0.349000007       7.84716402E-17
  0.349999994       4.33477780E-17
  0.351000011       3.92228036E-18
  0.351999998      -3.81540135E-17
  0.352999985      -8.09919338E-17
  0.354000002      -1.22540508E-16
  0.354999989      -1.60676459E-16
  0.356000006      -1.93303321E-16
  0.356999993      -2.18455501E-16
  0.358000010      -2.34402922E-16
  0.358999997      -2.39750638E-16
  0.360000014      -2.33528572E-16
  0.361000001      -2.15265866E-16
  0.361999989      -1.85045637E-16
  0.363000005      -1.43535715E-16
  0.363999993      -9.19926948E-17
  0.365000010      -3.22372236E-17
  0.365999997       3.33999649E-17
  0.367000014       1.02160359E-16
  0.368000001       1.70966070E-16
  0.368999988       2.36550388E-16
  0.370000005       2.95605525E-16
  0.370999992       3.44940959E-16
  0.372000009       3.81645491E-16
  0.372999996       4.03244725E-16
  0.374000013       4.07846258E-16
  0.375000000       3.94264482E-16
  0.375999987       3.62117305E-16
  0.377000004       3.11888913E-16
  0.377999991       2.44952849E-16
  0.379000008       1.63552467E-16
  0.379999995       7.07369920E-17
  0.381000012      -2.97458946E-17
  0.381999999      -1.33598139E-16
  0.382999986      -2.36154903E-16
  0.384000003      -3.32596169E-16
  0.384999990      -4.18177757E-16
  0.386000007      -4.88470401E-16
  0.386999995      -5.39596092E-16
  0.388000011      -5.68448470E-16
  0.388999999      -5.72886658E-16
  0.389999986      -5.51889399E-16
  0.391000003      -5.05661041E-16
  0.391999990      -4.35680052E-16
  0.393000007      -3.44685182E-16
  0.393999994      -2.36596102E-16
  0.395000011      -1.16368774E-16
  0.395999998       1.02103237E-17
  0.397000015       1.36784293E-16
  0.398000002       2.56729863E-16
  0.398999989       3.63492013E-16
  0.400000006       4.50933977E-16
  0.400999993       5.13685143E-16
  0.402000010       5.47468575E-16
  0.402999997       5.49390440E-16
  0.404000014       5.18173305E-16
  0.405000001       4.54318668E-16
  0.405999988       3.60184826E-16
  0.407000005       2.39972137E-16
  0.407999992       9.96096121E-17
  0.409000009      -5.34568614E-17
  0.409999996      -2.10570061E-16
  0.411000013      -3.62250766E-16
  0.412000000      -4.98656184E-16
  0.412999988      -6.10088239E-16
  0.414000005      -6.87528332E-16
  0.414999992      -7.23173331E-16
  0.416000009      -7.10944875E-16
  0.416999996      -6.46944072E-16
  0.418000013      -5.29824826E-16
  0.419000000      -3.61061135E-16
  0.419999987      -1.45087771E-16
  0.421000004       1.10701290E-16
  0.421999991       3.96106540E-16
  0.423000008       6.98430705E-16
  0.423999995       1.00293603E-15
  0.425000012       1.29343752E-15
  0.425999999       1.55301278E-15
  0.426999986       1.76479971E-15
  0.428000003       1.91284900E-15
  0.428999990       1.98299328E-15
  0.430000007       1.96369003E-15
  0.430999994       1.84679716E-15
  0.432000011       1.62823566E-15
  0.432999998       1.30850306E-15
  0.433999985       8.93000684E-16
  0.435000002       3.92147032E-16
  0.435999990      -1.78741501E-16
  0.437000006      -7.99812343E-16
  0.437999994      -1.44727882E-15
  0.439000010      -2.09424979E-15
  0.439999998      -2.71176073E-15
  0.441000015      -3.26997133E-15
  0.442000002      -3.73948148E-15
  0.442999989      -4.09271455E-15
  0.444000006      -4.30530118E-15
  0.444999993      -4.35740641E-15
  0.446000010      -4.23492841E-15
  0.446999997      -3.93050816E-15
  0.448000014      -3.44429346E-15
  0.449000001      -2.78440609E-15
  0.449999988      -1.96707308E-15
  0.451000005      -1.01639846E-15
  0.451999992       3.62335879E-17
  0.453000009       1.15311953E-15
  0.453999996       2.29153392E-15
  0.455000013       3.40532592E-15
  0.456000000       4.44675484E-15
  0.456999987       5.36849694E-15
  0.458000004       6.12573804E-15
  0.458999991       6.67826568E-15
  0.460000008       6.99246239E-15
  0.460999995       7.04310945E-15
  0.462000012       6.81490776E-15
  0.463000000       6.30363444E-15
  0.463999987       5.51686619E-15
  0.465000004       4.47421946E-15
  0.465999991       3.20707003E-15
  0.467000008       1.75774223E-15
  0.467999995       1.78182089E-16
  0.469000012      -1.47185072E-15
  0.469999999      -3.12701313E-15
  0.470999986      -4.71894887E-15
  0.472000003      -6.17910112E-15
  0.472999990      -7.44164946E-15
  0.474000007      -8.44645077E-15
  0.474999994      -9.14184788E-15
  0.476000011      -9.48722471E-15
  0.476999998      -9.45517722E-15
  0.477999985      -9.03319303E-15
  0.479000002      -8.22475006E-15
  0.479999989      -7.04975569E-15
  0.481000006      -5.54429608E-15
  0.481999993      -3.75966670E-15
  0.483000010      -1.76071182E-15
  0.483999997       3.76480231E-16
  0.485000014       2.56744961E-15
  0.486000001       4.72269445E-15
  0.486999989       6.75133074E-15
  0.488000005       8.56492527E-15
  0.488999993       1.00813506E-14
  0.490000010       1.12284780E-14
  0.490999997       1.19475573E-14
  0.492000014       1.21961149E-14
  0.493000001       1.19502339E-14
  0.493999988       1.12060943E-14
  0.495000005       9.98069425E-15
  0.495999992       8.31168444E-15
  0.497000009       6.25630817E-15
  0.497999996       3.88946772E-15
  0.499000013       1.30097654E-15
  0.500000000      -1.40789846E-15
  0.500999987      -4.12847755E-15
  0.501999974      -6.74912252E-15
  0.503000021      -9.15992441E-15
  0.504000008      -1.12574194E-14
  0.504999995      -1.29491331E-14
  0.505999982      -1.41577424E-14
  0.507000029      -1.48246741E-14
  0.508000016      -1.49129552E-14
  0.509000003      -1.44091976E-14
  0.509999990      -1.33245830E-14
  0.510999978      -1.16948128E-14
  0.512000024      -9.57898887E-15
  0.513000011      -7.05745353E-15
  0.513999999      -4.22868112E-15
  0.514999986      -1.20532418E-15
  0.515999973       1.89041999E-15
  0.517000020       4.93192557E-15
  0.518000007       7.79352304E-15
  0.518999994       1.03559197E-14
  0.519999981       1.25114110E-14
  0.521000028       1.41686547E-14
  0.522000015       1.52567930E-14
  0.523000002       1.57287140E-14
  0.523999989       1.55633173E-14
  0.524999976       1.47666574E-14
  0.526000023       1.33719016E-14
  0.527000010       1.14380958E-14
  0.527999997       9.04776708E-15
  0.528999984       6.30347012E-15
  0.529999971       3.32341339E-15
  0.531000018       2.36351177E-16
  0.532000005      -2.82403537E-15
  0.532999992      -5.72501988E-15
  0.533999979      -8.34071649E-15
  0.535000026      -1.05576990E-14
  0.536000013      -1.22801083E-14
  0.537000000      -1.34339942E-14
  0.537999988      -1.39707107E-14
  0.538999975      -1.38691887E-14
  0.540000021      -1.31369753E-14
  0.541000009      -1.18099864E-14
  0.541999996      -9.95097779E-15
  0.542999983      -7.64678390E-15
  0.544000030      -5.00445488E-15
  0.545000017      -2.14644671E-15
  0.546000004       7.94906487E-16
  0.546999991       3.68340197E-15
  0.547999978       6.38518042E-15
  0.549000025       8.77485560E-15
  0.550000012       1.07412875E-14
  0.550999999       1.21927149E-14
  0.551999986       1.30610227E-14
  0.552999973       1.33049352E-14
  0.554000020       1.29119797E-14
  0.555000007       1.18991265E-14
  0.555999994       1.03120679E-14
  0.556999981       8.22316187E-15
  0.558000028       5.72813188E-15
  0.559000015       2.94166771E-15
  0.560000002      -7.86980297E-18
  0.560999990      -2.98439946E-15
  0.561999977      -5.85044640E-15
  0.563000023      -8.47355582E-15
  0.564000010      -1.07324851E-14
  0.564999998      -1.25228925E-14
  0.565999985      -1.37622407E-14
  0.566999972      -1.43936902E-14
  0.568000019      -1.43887943E-14
  0.569000006      -1.37488584E-14
  0.569999993      -1.25048897E-14
  0.570999980      -1.07161518E-14
  0.572000027      -8.46736740E-15
  0.573000014      -5.86470747E-15
  0.574000001      -3.03074762E-15
  0.574999988      -9.86341544E-17
  0.575999975       2.79427191E-15
  0.577000022       5.51296730E-15
  0.578000009       7.93128194E-15
  0.578999996       9.93794958E-15
  0.579999983       1.14419735E-14
  0.580999970       1.23770326E-14
  0.582000017       1.27047082E-14
  0.583000004       1.24163688E-14
  0.583999991       1.15336190E-14
  0.584999979       1.01072740E-14
  0.586000025       8.21491600E-15
  0.587000012       5.95712639E-15
  0.588000000       3.45258041E-15
  0.588999987       8.32229352E-16
  0.589999974      -1.76714843E-15
  0.591000021      -4.20972241E-15
  0.592000008      -6.36737748E-15
  0.592999995      -8.12614865E-15
  0.593999982      -9.39200212E-15
  0.595000029      -1.00956747E-14
  0.596000016      -1.01963327E-14
  0.597000003      -9.68384732E-15
  0.597999990      -8.57957724E-15
  0.598999977      -6.93559471E-15
  0.600000024      -4.83238141E-15
  0.601000011      -2.37509203E-15
  0.601999998       3.11452294E-16
  0.602999985       3.08880242E-15
  0.603999972       5.81167220E-15
  0.605000019       8.33515657E-15
  0.606000006       1.05220271E-14
  0.606999993       1.22497498E-14
  0.607999980       1.34168757E-14
  0.609000027       1.39484820E-14
  0.610000014       1.38003825E-14
  0.611000001       1.29618911E-14
  0.611999989       1.14569626E-14
  0.612999976       9.34364924E-15
  0.614000022       6.71186324E-15
  0.615000010       3.67951917E-15
  0.615999997       3.87232388E-16
  0.616999984      -3.00820596E-15
  0.617999971      -6.34127785E-15
  0.619000018      -9.44576838E-15
  0.620000005      -1.21629925E-14
  0.620999992      -1.43498325E-14
  0.621999979      -1.58861842E-14
  0.623000026      -1.66814567E-14
  0.624000013      -1.66797694E-14
  0.625000000      -1.58635922E-14
  0.625999987      -1.42556085E-14
  0.626999974      -1.19186853E-14
  0.628000021      -8.95388534E-15
  0.629000008      -5.49661109E-15
  0.629999995      -1.71098453E-15
  0.630999982       2.21728556E-15
  0.632000029       6.08925929E-15
  0.633000016       9.70197552E-15
  0.634000003       1.28581041E-14
  0.634999990       1.53755979E-14
  0.635999978       1.70968959E-14
  0.637000024       1.78972353E-14
  0.638000011       1.76916773E-14
  0.638999999       1.64404674E-14
  0.639999986       1.41524738E-14
  0.640999973       1.08864672E-14
  0.642000020       6.75016226E-15
  0.643000007       1.89698111E-15
  0.643999994      -3.47934750E-15
  0.644999981      -9.15217660E-15
  0.646000028      -1.48710220E-14
  0.647000015      -2.03719843E-14
  0.648000002      -2.53890587E-14
  0.648999989      -2.96658653E-14
  0.649999976      -3.29672914E-14
  0.651000023      -3.50905150E-14
  0.652000010      -3.58749251E-14
  0.652999997      -3.52104820E-14
  0.653999984      -3.30441037E-14
  0.654999971      -2.93837593E-14
  0.656000018      -2.43000539E-14
  0.657000005      -1.79251840E-14
  0.657999992      -1.04492305E-14
  0.658999979      -2.11392149E-15
  0.660000026       6.79593507E-15
  0.661000013       1.59630271E-14
  0.662000000       2.50497085E-14
  0.662999988       3.37112811E-14
  0.663999975       4.16098464E-14
  0.665000021       4.84281601E-14
  0.666000009       5.38829066E-14
  0.666999996       5.77368015E-14
  0.667999983       5.98090506E-14
  0.669000030       5.99836614E-14
  0.670000017       5.82152328E-14
  0.671000004       5.45319811E-14
  0.671999991       4.90357673E-14
  0.672999978       4.18991691E-14
  0.674000025       3.33596235E-14
  0.675000012       2.37108459E-14
  0.675999999       1.32918706E-14
  0.676999986       2.47411526E-15
  0.677999973      -8.35301202E-15
  0.679000020      -1.87973958E-14
  0.680000007      -2.84797685E-14
  0.680999994      -3.70488959E-14
  0.681999981      -4.41957804E-14
  0.683000028      -4.96662783E-14
  0.684000015      -5.32716232E-14
  0.685000002      -5.48963679E-14
  0.685999990      -5.45034463E-14
  0.686999977      -5.21360739E-14
  0.688000023      -4.79164438E-14
  0.689000010      -4.20411759E-14
  0.689999998      -3.47737281E-14
  0.690999985      -2.64340551E-14
  0.691999972      -1.73858798E-14
  0.693000019      -8.02211098E-15
  0.694000006       1.25102383E-15
  0.694999993       1.00304972E-14
  0.695999980       1.79329835E-14
  0.697000027       2.46106643E-14
  0.698000014       2.97657068E-14
  0.699000001       3.31628036E-14
  0.699999988       3.46392667E-14
  0.700999975       3.41122258E-14
  0.702000022       3.15826670E-14
  0.703000009       2.71360523E-14
  0.703999996       2.09395693E-14
  0.704999983       1.32360155E-14
  0.705999970       4.33460217E-15
  0.707000017      -5.40100479E-15
  0.708000004      -1.55669155E-14
  0.708999991      -2.57349751E-14
  0.709999979      -3.54697994E-14
  0.711000025      -4.43462202E-14
  0.712000012      -5.19664437E-14
  0.713000000      -5.79762068E-14
  0.713999987      -6.20792954E-14
  0.714999974      -6.40498329E-14
  0.716000021      -6.37418246E-14
  0.717000008      -6.10955514E-14
  0.717999995      -5.61405916E-14
  0.718999982      -4.89952757E-14
  0.720000029      -3.98626173E-14
  0.721000016      -2.90228453E-14
  0.722000003      -1.68228773E-14
  0.722999990      -3.66307868E-15
  0.723999977       1.00181196E-14
  0.725000024       2.37611563E-14
  0.726000011       3.71031263E-14
  0.726999998       4.95957543E-14
  0.727999985       6.08227661E-14
  0.728999972       7.04160173E-14
  0.730000019       7.80697189E-14
  0.731000006       8.35521295E-14
  0.731999993       8.67143136E-14
  0.732999980       8.74956032E-14
  0.734000027       8.59254752E-14
  0.735000014       8.21218703E-14
  0.736000001       7.62859285E-14
  0.736999989       6.86934098E-14
  0.737999976       5.96832086E-14
  0.739000022       4.96432763E-14
  0.740000010       3.89947203E-14
  0.740999997       2.81745960E-14
  0.741999984       1.76181769E-14
  0.742999971       7.74140172E-15
  0.744000018      -1.07575884E-15
  0.745000005      -8.50433700E-15
  0.745999992      -1.42791781E-14
  0.746999979      -1.82089976E-14
  0.748000026      -2.01832756E-14
  0.749000013      -2.01757082E-14
  0.750000000      -1.82440597E-14
  0.750999987      -1.45264626E-14
  0.751999974      -9.23430999E-15
  0.753000021      -2.64204505E-15
  0.754000008       4.92568886E-15
  0.754999995       1.31090021E-14
  0.755999982       2.15291635E-14
  0.757000029       2.98057409E-14
  0.758000016       3.75737480E-14
  0.759000003       4.45000482E-14
  0.759999990       5.02982801E-14
  0.760999978       5.47417065E-14
  0.762000024       5.76733485E-14
  0.763000011       5.90130294E-14
  0.763999999       5.87609253E-14
  0.764999986       5.69975721E-14
  0.765999973       5.38801724E-14
  0.767000020       4.96354904E-14
  0.768000007       4.45495285E-14
  0.768999994       3.89544794E-14
  0.769999981       3.32134934E-14
  0.771000028       2.77039354E-14
  0.772000015       2.27998535E-14
  0.773000002       1.88544333E-14
  0.773999989       1.61832184E-14
  0.774999976       1.50488430E-14
  0.776000023       1.56479799E-14
  0.777000010       1.81010822E-14
  0.777999997       2.24454176E-14
  0.778999984       2.86317397E-14
  0.779999971       3.65247586E-14
  0.781000018       4.59074578E-14
  0.782000005       5.64890813E-14
  0.782999992       6.79165179E-14
  0.783999979       7.97885724E-14
  0.785000026       9.16725531E-14
  0.786000013       1.03122507E-13
  0.787000000       1.13698235E-13
  0.787999988       1.22984332E-13
  0.788999975       1.30608428E-13
  0.790000021       1.36257718E-13
  0.791000009       1.39693162E-13
  0.791999996       1.40760681E-13
  0.792999983       1.39398706E-13
  0.794000030       1.35641837E-13
  0.795000017       1.29620408E-13
  0.796000004       1.21555801E-13
  0.796999991       1.11751808E-13
  0.797999978       1.00582262E-13
  0.799000025       8.84755187E-14
  0.800000012       7.58963815E-14
  0.800999999       6.33261889E-14
  0.801999986       5.12419798E-14
  0.802999973       4.00956259E-14
  0.804000020       3.02937742E-14
  0.805000007       2.21795560E-14
  0.805999994       1.60168187E-14
  0.806999981       1.19776540E-14
  0.808000028       1.01337506E-14
  0.809000015       1.04520325E-14
  0.810000002       1.27948147E-14
  0.810999990       1.69245111E-14
  0.811999977       2.25127822E-14
  0.813000023       2.91537492E-14
  0.814000010       3.63807935E-14
  0.814999998       4.36862291E-14
  0.815999985       5.05430760E-14
  0.816999972       5.64279966E-14
  0.818000019       6.08444569E-14
  0.819000006       6.33450947E-14
  0.819999993       6.35523535E-14
  0.820999980       6.11764735E-14
  0.822000027       5.60300572E-14
  0.823000014       4.80384775E-14
  0.824000001       3.72457531E-14
  0.824999988       2.38154646E-14
  0.825999975       8.02670528E-15
  0.827000022      -9.73489630E-15
  0.828000009      -2.89907191E-14
  0.828999996      -4.91867797E-14
  0.829999983      -6.97147418E-14
  0.830999970      -8.99354579E-14
  0.832000017      -1.09204177E-13
  0.833000004      -1.26896283E-13
  0.833999991      -1.42432575E-13
  0.834999979      -1.55303071E-13
  0.836000025      -1.65088280E-13
  0.837000012      -1.71477063E-13
  0.838000000      -1.74280417E-13
  0.838999987      -1.73440486E-13
  0.839999974      -1.69034396E-13
  0.841000021      -1.61272837E-13
  0.842000008      -1.50493333E-13
  0.842999995      -1.37148417E-13
  0.843999982      -1.21789311E-13
  0.845000029      -1.05045530E-13
  0.846000016      -8.76014620E-14
  0.847000003      -7.01706759E-14
  0.847999990      -5.34690564E-14
  0.848999977      -3.81878875E-14
  0.850000024      -2.49678733E-14
  0.851000011      -1.43752079E-14
  0.851999998      -6.88064218E-15
  0.852999985      -2.84238380E-15
  0.853999972      -2.49349072E-15
  0.855000019      -5.93431452E-15
  0.856000006      -1.31302016E-14