   0.00000000       0.00000000    
   1.00000005E-03   0.00000000    
   2.00000009E-03   0.00000000    
   3.00000003E-03   0.00000000    
   4.00000019E-03   0.00000000    
   4.99999989E-03   0.00000000    
   6.00000005E-03   0.00000000    
   7.00000022E-03   0.00000000    
   8.00000038E-03   0.00000000    
   8.99999961E-03   0.00000000    
   9.99999978E-03   0.00000000    
   1.09999999E-02   0.00000000    
   1.20000001E-02   0.00000000    
   1.30000003E-02   0.00000000    
   1.40000004E-02   0.00000000    
   1.49999997E-02   0.00000000    
   1.60000008E-02  -7.24821519E-38
   1.70000009E-02  -4.82097612E-37
   1.79999992E-02  -1.63545853E-36
   1.89999994E-02  -4.66284687E-36
   1.99999996E-02  -1.20346357E-35
   2.09999997E-02  -2.60282890E-35
   2.19999999E-02  -5.76786839E-35
   2.30000000E-02  -1.20843586E-34
   2.40000002E-02  -2.27741929E-34
   2.50000004E-02  -3.95843866E-34
   2.60000005E-02  -6.43346038E-34
   2.70000007E-02  -9.74715232E-34
   2.80000009E-02  -1.35508656E-33
   2.89999992E-02  -1.66696927E-33
   2.99999993E-02  -1.63668946E-33
   3.09999995E-02  -7.26605247E-34
   3.20000015E-02   2.00959961E-33
   3.29999998E-02   8.09585000E-33
   3.40000018E-02   1.98361924E-32
   3.50000001E-02   4.04679329E-32
   3.59999985E-02   7.42538387E-32
   3.70000005E-02   1.26441921E-31
   3.79999988E-02   2.02800846E-31
   3.90000008E-02   3.08527183E-31
   3.99999991E-02   4.46611211E-31
   4.10000011E-02   6.15578227E-31
   4.19999994E-02   8.06295837E-31
   4.30000015E-02   9.98065986E-31
   4.39999998E-02   1.15450980E-30
   4.50000018E-02   1.22005988E-30
   4.60000001E-02   1.11847610E-30
   4.69999984E-02   7.55392982E-31
   4.80000004E-02   2.76321576E-32
   4.89999987E-02  -1.15751154E-30
   5.00000007E-02  -2.84944570E-30
   5.09999990E-02  -5.00445975E-30
   5.20000011E-02  -7.41639811E-30
   5.29999994E-02  -9.62725058E-30
   5.40000014E-02  -1.08204259E-29
   5.49999997E-02  -9.70433744E-30
   5.60000017E-02  -4.40055244E-30
   5.70000000E-02   7.64104656E-30
   5.79999983E-02   2.96682647E-29
   5.90000004E-02   6.55521192E-29
   5.99999987E-02   1.19561370E-28
   6.10000007E-02   1.95929451E-28
   6.19999990E-02   2.98156248E-28
   6.30000010E-02   4.27993874E-28
   6.40000030E-02   5.84083756E-28
   6.49999976E-02   7.60243608E-28
   6.59999996E-02   9.43452124E-28
   6.70000017E-02   1.11164493E-27
   6.80000037E-02   1.23151973E-27
   6.89999983E-02   1.25664810E-27
   7.00000003E-02   1.12630145E-27
   7.10000023E-02   7.65506597E-28
   7.19999969E-02   8.69435073E-29
   7.29999989E-02  -1.00463901E-27
   7.40000010E-02  -2.60480022E-27
   7.50000030E-02  -4.79795603E-27
   7.59999976E-02  -7.64164397E-27
   7.69999996E-02  -1.11463434E-26
   7.80000016E-02  -1.52511419E-26
   7.90000036E-02  -1.97961116E-26
   7.99999982E-02  -2.44930341E-26
   8.10000002E-02  -2.88969795E-26
   8.20000023E-02  -3.23821917E-26
   8.29999968E-02  -3.41267730E-26
   8.39999989E-02  -3.31114751E-26
   8.50000009E-02  -2.81386747E-26
   8.60000029E-02  -1.78778931E-26
   8.69999975E-02  -9.44036933E-28
   8.79999995E-02   2.39863266E-26
   8.90000015E-02   5.80171574E-26
   9.00000036E-02   1.01832822E-25
   9.09999982E-02   1.55458785E-25
   9.20000002E-02   2.17991086E-25
   9.30000022E-02   2.87308540E-25
   9.39999968E-02   3.59788415E-25
   9.49999988E-02   4.30053291E-25
   9.60000008E-02   4.90783846E-25
   9.70000029E-02   5.32638341E-25
   9.79999974E-02   5.44324230E-25
   9.89999995E-02   5.12869141E-25
  0.100000001       4.24136785E-25
  0.101000004       2.63626542E-25
  0.101999998       1.75848312E-26
  0.103000000      -3.25562600E-25
  0.104000002      -7.73472300E-25
  0.104999997      -1.32788365E-24
  0.105999999      -1.98244078E-24
  0.107000001      -2.72045665E-24
  0.108000003      -3.51278381E-24
  0.108999997      -4.31599882E-24
  0.109999999      -5.07113869E-24
  0.111000001      -5.70326516E-24
  0.112000003      -6.12213610E-24
  0.112999998      -6.22426400E-24
  0.114000000      -5.89661733E-24
  0.115000002      -5.02215555E-24
  0.115999997      -3.48731267E-24
  0.116999999      -1.19142609E-24
  0.118000001       1.94204973E-24
  0.119000003       5.95286745E-24
  0.119999997       1.08303739E-23
  0.120999999       1.64996916E-23
  0.122000001       2.28086351E-23
  0.123000003       2.95164835E-23
  0.123999998       3.62858851E-23
  0.125000000       4.26792872E-23
  0.126000002       4.81612741E-23
  0.127000004       5.21081535E-23
  0.128000006       5.38259549E-23
  0.128999993       5.25776677E-23
  0.129999995       4.76201534E-23
  0.130999997       3.82506063E-23
  0.131999999       2.38617392E-23
  0.133000001       4.00414199E-24
  0.134000003      -2.15465697E-23
  0.135000005      -5.27210384E-23
  0.136000007      -8.90898801E-23
  0.136999995      -1.29804525E-22
  0.137999997      -1.73550434E-22
  0.138999999      -2.18518106E-22
  0.140000001      -2.62397528E-22
  0.141000003      -3.02400955E-22
  0.142000005      -3.35318694E-22
  0.143000007      -3.57610818E-22
  0.143999994      -3.65536535E-22
  0.144999996      -3.55320900E-22
  0.145999998      -3.23356206E-22
  0.147000000      -2.66432962E-22
  0.148000002      -1.81992748E-22
  0.149000004      -6.83928710E-23
  0.150000006       7.48296605E-23
  0.150999993       2.46709319E-22
  0.151999995       4.44633914E-22
  0.152999997       6.64173121E-22
  0.153999999       8.98970136E-22
  0.155000001       1.14071003E-21
  0.156000003       1.37917817E-21
  0.157000005       1.60241677E-21
  0.158000007       1.79698506E-21
  0.158999994       1.94832397E-21
  0.159999996       2.04121821E-21
  0.160999998       2.06034838E-21
  0.162000000       1.99091630E-21
  0.163000003       1.81932398E-21
  0.164000005       1.53388528E-21
  0.165000007       1.12554331E-21
  0.165999994       5.88569500E-22
  0.166999996      -7.87793860E-23
  0.167999998      -8.73669233E-22
  0.169000000      -1.78817687E-21
  0.170000002      -2.80887110E-21
  0.171000004      -3.91649381E-21
  0.172000006      -5.08574147E-21
  0.172999993      -6.28514246E-21
  0.173999995      -7.47702369E-21
  0.174999997      -8.61756762E-21
  0.175999999      -9.65694672E-21
  0.177000001      -1.05395541E-20
  0.178000003      -1.12043423E-20
  0.179000005      -1.15853067E-20
  0.180000007      -1.16121707E-20
  0.180999994      -1.12113500E-20
  0.181999996      -1.03072957E-20
  0.182999998      -8.82433127E-21
  0.184000000      -6.68911719E-21
  0.185000002      -3.83388116E-21
  0.186000004      -2.00537782E-22
  0.187000006       4.25419635E-21
  0.187999994       9.55263391E-21
  0.188999996       1.56889020E-20
  0.189999998       2.26207790E-20
  0.191000000       3.02607871E-20
  0.192000002       3.84668906E-20
  0.193000004       4.70332634E-20
  0.194000006       5.56818245E-20
  0.194999993       6.40552446E-20
  0.195999995       7.17125008E-20
  0.196999997       7.81279262E-20
  0.197999999       8.26949131E-20
  0.199000001       8.47354514E-20
  0.200000003       8.35165490E-20
  0.201000005       7.82744987E-20
  0.202000007       6.82476157E-20
  0.202999994       5.27177811E-20
  0.203999996       3.10606417E-20
  0.204999998       2.80364629E-21
  0.206000000      -3.23094841E-20
  0.207000002      -7.42500970E-20
  0.208000004      -1.22634760E-19
  0.209000006      -1.76658055E-19
  0.209999993      -2.35032566E-19
  0.210999995      -2.95941209E-19
  0.211999997      -3.57007792E-19
  0.213000000      -4.15291532E-19
  0.214000002      -4.67311293E-19
  0.215000004      -5.09105213E-19
  0.216000006      -5.36329899E-19
  0.216999993      -5.44402768E-19
  0.217999995      -5.28688818E-19
  0.218999997      -4.84730734E-19
  0.219999999      -4.08519431E-19
  0.221000001      -2.96798427E-19
  0.222000003      -1.47392237E-19
  0.223000005       4.04539529E-20
  0.224000007       2.65739527E-19
  0.224999994       5.25397570E-19
  0.225999996       8.14029475E-19
  0.226999998       1.12370832E-18
  0.228000000       1.44387478E-18
  0.229000002       1.76134918E-18
  0.230000004       2.06048085E-18
  0.231000006       2.32345356E-18
  0.231999993       2.53075970E-18
  0.232999995       2.66185087E-18
  0.233999997       2.69596194E-18
  0.234999999       2.61309830E-18
  0.236000001       2.39516474E-18
  0.237000003       2.02720358E-18
  0.238000005       1.49869679E-18
  0.238999993       8.04877652E-19
  0.239999995      -5.20131945E-20
  0.240999997      -1.06160132E-18
  0.241999999      -2.20445970E-18
  0.243000001      -3.45147976E-18
  0.244000003      -4.76361114E-18
  0.245000005      -6.09204666E-18
  0.246000007      -7.37891429E-18
  0.246999994      -8.55852347E-18
  0.247999996      -9.55919777E-18
  0.248999998      -1.03056886E-17
  0.250000000      -1.07221550E-17
  0.250999987      -1.07356413E-17
  0.252000004      -1.02799624E-17
  0.252999991      -9.29987499E-18
  0.254000008      -7.75536914E-18
  0.254999995      -5.62589233E-18
  0.256000012      -2.91428923E-18
  0.256999999       3.49766601E-19
  0.257999986       4.10710105E-18
  0.259000003       8.26736086E-18
  0.259999990       1.27085498E-17
  0.261000007       1.72779799E-17
  0.261999995       2.17947930E-17
  0.263000011       2.60541478E-17
  0.263999999       2.98331158E-17
  0.264999986       3.28982402E-17
  0.266000003       3.50146116E-17
  0.266999990       3.59562806E-17
  0.268000007       3.55176499E-17
  0.268999994       3.35254747E-17
  0.270000011       2.98509829E-17
  0.270999998       2.44215613E-17
  0.272000015       1.72314229E-17
  0.273000002       8.35061410E-18
  0.273999989      -2.06826503E-18
  0.275000006      -1.37862090E-17
  0.275999993      -2.64773731E-17
  0.277000010      -3.97325057E-17
  0.277999997      -5.30665281E-17
  0.279000014      -6.59304572E-17
  0.280000001      -7.77276211E-17
  0.280999988      -8.78339616E-17
  0.282000005      -9.56219332E-17
  0.282999992      -1.00487396E-16
  0.284000009      -1.01878588E-16
  0.284999996      -9.93260877E-17
  0.286000013      -9.24725589E-17
  0.287000000      -8.11009165E-17
  0.287999988      -6.51594521E-17
  0.289000005      -4.47824334E-17
  0.289999992      -2.03048141E-17
  0.291000009       7.73025925E-18
  0.291999996       3.85722591E-17
  0.293000013       7.12732300E-17
  0.294000000       1.04707367E-16
  0.294999987       1.37600383E-16
  0.296000004       1.68568331E-16
  0.296999991       1.96165075E-16
  0.298000008       2.18937225E-16
  0.298999995       2.35484847E-16
  0.300000012       2.44525627E-16
  0.300999999       2.44960340E-16
  0.301999986       2.35936554E-16
  0.303000003       2.16907707E-16
  0.303999990       1.87684541E-16
  0.305000007       1.48475876E-16
  0.305999994       9.99159998E-17
  0.307000011       4.30762907E-17
  0.307999998      -2.05408501E-17
  0.308999985      -8.90270670E-17
  0.310000002      -1.60112626E-16
  0.310999990      -2.31230174E-16
  0.312000006      -2.99596612E-16
  0.312999994      -3.62310826E-16
  0.314000010      -4.16464527E-16
  0.314999998      -4.59262164E-16
  0.316000015      -4.88145511E-16
  0.317000002      -5.00917921E-16
  0.317999989      -4.95862775E-16
  0.319000006      -4.71850185E-16
  0.319999993      -4.28426830E-16
  0.321000010      -3.65883664E-16
  0.321999997      -2.85296631E-16
  0.323000014      -1.88536961E-16
  0.324000001      -7.82482949E-17
  0.324999988       4.22106759E-17
  0.326000005       1.68857831E-16
  0.326999992       2.97211923E-16
  0.328000009       4.22446300E-16
  0.328999996       5.39566975E-16
  0.330000013       6.43609144E-16
  0.331000000       7.29844563E-16
  0.331999987       7.93991056E-16
  0.333000004       8.32415382E-16
  0.333999991       8.42319950E-16
  0.335000008       8.21904127E-16
  0.335999995       7.70491609E-16
  0.337000012       6.88615975E-16
  0.338000000       5.78058588E-16
  0.338999987       4.41834302E-16
  0.340000004       2.84122856E-16
  0.340999991       1.10146060E-16
  0.342000008      -7.40065855E-17
  0.342999995      -2.61598476E-16
  0.344000012      -4.45505184E-16
  0.344999999      -6.18502399E-16
  0.345999986      -7.73571262E-16
  0.347000003      -9.04207248E-16
  0.347999990      -1.00471935E-15
  0.349000007      -1.07050449E-15
  0.349999994      -1.09828399E-15
  0.351000011      -1.08628916E-15
  0.351999998      -1.03438488E-15
  0.352999985      -9.44122934E-16
  0.354000002      -8.18719124E-16
  0.354999989      -6.62952518E-16
  0.356000006      -4.82988086E-16
  0.356999993      -2.86127994E-16
  0.358000010      -8.05007209E-17
  0.358999997       1.25299612E-16
  0.360000014       3.22607745E-16
  0.361000001       5.03097972E-16
  0.361999989       6.59190792E-16
  0.363000005       7.84435783E-16
  0.363999993       8.73849799E-16
  0.365000010       9.24191825E-16
  0.365999997       9.34157697E-16
  0.367000014       9.04481686E-16
  0.368000001       8.37935390E-16
  0.368999988       7.39219259E-16
  0.370000005       6.14748667E-16
  0.370999992       4.72340300E-16
  0.372000009       3.20811055E-16
  0.372999996       1.69507188E-16
  0.374000013       2.77853806E-17
  0.375000000      -9.55284353E-17
  0.375999987      -1.92674108E-16
  0.377000004      -2.57456538E-16
  0.377999991      -2.85679808E-16
  0.379000008      -2.75488519E-16
  0.379999995      -2.27592194E-16
  0.381000012      -1.45353143E-16
  0.381999999      -3.47248370E-17
  0.382999986       9.59652860E-17
  0.384000003       2.36386196E-16
  0.384999990       3.74716153E-16
  0.386000007       4.98279043E-16
  0.386999995       5.94276463E-16
  0.388000011       6.50581866E-16
  0.388999999       6.56556149E-16
  0.389999986       6.03840312E-16
  0.391000003       4.87079679E-16
  0.391999990       3.04533306E-16
  0.393000007       5.85258077E-17
  0.393999994      -2.44295843E-16
  0.395000011      -5.92930792E-16
  0.395999998      -9.72237969E-16
  0.397000015      -1.36340329E-15
  0.398000002      -1.74465600E-15
  0.398999989      -2.09221627E-15
  0.400000006      -2.38144075E-15
  0.400999993      -2.58812315E-15
  0.402000010      -2.68989077E-15
  0.402999997      -2.66763159E-15
  0.404000014      -2.50687850E-15
  0.405000001      -2.19907287E-15
  0.405999988      -1.74263053E-15
  0.407000005      -1.14373631E-15
  0.407999992      -4.16803235E-16
  0.409000009       4.15457220E-16
  0.409999996       1.32239228E-15
  0.411000013       2.26620997E-15
  0.412000000       3.20322386E-15
  0.412999988       4.08551519E-15
  0.414000005       4.86296396E-15
  0.414999992       5.48557849E-15
  0.416000009       5.90603167E-15
  0.416999996       6.08229287E-15
  0.418000013       5.98023599E-15
  0.419000000       5.57608862E-15
  0.419999987       4.85858819E-15
  0.421000004       3.83071667E-15
  0.421999991       2.51089068E-15
  0.423000008       9.33505270E-16
  0.423999995      -8.51248948E-16
  0.425000012      -2.77834854E-15
  0.425999999      -4.76969547E-15
  0.426999986      -6.73665124E-15
  0.428000003      -8.58329402E-15
  0.428999990      -1.02102935E-14
  0.430000007      -1.15192779E-14
  0.430999994      -1.24175233E-14
  0.432000011      -1.28227702E-14
  0.432999998      -1.26679529E-14
  0.433999985      -1.19056130E-14
  0.435000002      -1.05117729E-14
  0.435999990      -8.48904212E-15
  0.437000006      -5.86875798E-15
  0.437999994      -2.71199219E-15
  0.439000010       8.90712742E-16
  0.439999998       4.82095663E-15
  0.441000015       8.93547084E-15
  0.442000002       1.30704528E-14
  0.442999989       1.70471412E-14
  0.444000006       2.06784798E-14
  0.444999993       2.37766434E-14
  0.446000010       2.61611547E-14
  0.446999997       2.76672741E-14
  0.448000014       2.81543096E-14
  0.449000001       2.75134733E-14
  0.449999988       2.56749171E-14
  0.451000005       2.26135808E-14
  0.451999992       1.83535167E-14
  0.453000009       1.29704105E-14
  0.453999996       6.59207415E-15
  0.455000013      -6.03246701E-16
  0.456000000      -8.39080833E-15
  0.456999987      -1.65055178E-14
  0.458000004      -2.46501665E-14
  0.458999991      -3.25055297E-14
  0.460000008      -3.97419998E-14
  0.460999995      -4.60323613E-14
  0.462000012      -5.10652379E-14
  0.463000000      -5.45586728E-14
  0.463999987      -5.62732776E-14
  0.465000004      -5.60243854E-14
  0.465999991      -5.36926460E-14
  0.467000008      -4.92325297E-14
  0.467999995      -4.26782802E-14
  0.469000012      -3.41469542E-14
  0.469999999      -2.38382583E-14
  0.470999986      -1.20310324E-14
  0.472000003       9.23634795E-16
  0.472999990       1.46125228E-14
  0.474000007       2.85733825E-14
  0.474999994       4.23106069E-14
  0.476000011       5.53129659E-14
  0.476999998       6.70727376E-14
  0.477999985       7.71055515E-14
  0.479000002       8.49701372E-14
  0.479999989       9.02871663E-14
  0.481000006       9.27564164E-14
  0.481999993       9.21714758E-14
  0.483000010       8.84312765E-14
  0.483999997       8.15479073E-14
  0.485000014       7.16502324E-14
  0.486000001       5.89830173E-14
  0.486999989       4.39014500E-14
  0.488000005       2.68611292E-14
  0.488999993       8.40375777E-15
  0.490000010      -1.08610071E-14
  0.490999997      -3.02769284E-14
  0.492000014      -4.91650313E-14
  0.493000001      -6.68490057E-14
  0.493999988      -8.26811967E-14
  0.495000005      -9.60681594E-14
  0.495999992      -1.06494695E-13
  0.497000009      -1.13545370E-13
  0.497999996      -1.16922598E-13
  0.499000013      -1.16460484E-13
  0.500000000      -1.12133664E-13
  0.500999987      -1.04060762E-13
  0.501999974      -9.25021846E-14
  0.503000021      -7.78522144E-14
  0.504000008      -6.06255633E-14
  0.504999995      -4.14388914E-14
  0.505999982      -2.09878772E-14
  0.507000029      -2.07472250E-17
  0.508000016       2.06907347E-14
  0.509000003       4.03816791E-14
  0.509999990       5.83246626E-14
  0.510999978       7.38591995E-14
  0.512000024       8.64188888E-14
  0.513000011       9.55550743E-14
  0.513999999       1.00955980E-13
  0.514999986       1.02460446E-13
  0.515999973       1.00065606E-13
  0.517000020       9.39281002E-14
  0.518000007       8.43586878E-14
  0.518999994       7.18103894E-14
  0.519999981       5.68605560E-14
  0.521000028       4.01875188E-14
  0.522000015       2.25427367E-14
  0.523000002       4.71957271E-15
  0.523999989      -1.24800632E-14
  0.524999976      -2.82798246E-14
  0.526000023      -4.19623510E-14
  0.527000010      -5.29005923E-14
  0.527999997      -6.05856985E-14
  0.528999984      -6.46502302E-14
  0.529999971      -6.48856782E-14
  0.531000018      -6.12534722E-14
  0.532000005      -5.38889171E-14
  0.532999992      -4.30978461E-14
  0.533999979      -2.93460121E-14
  0.535000026      -1.32415831E-14
  0.536000013       4.48858175E-15
  0.537000000       2.30279764E-14
  0.537999988       4.15036352E-14
  0.538999975       5.90221231E-14
  0.540000021       7.47068491E-14
  0.541000009       8.77351712E-14
  0.541999996       9.73737353E-14
  0.542999983       1.03010584E-13
  0.544000030       1.04182647E-13
  0.545000017       1.00597475E-13
  0.546000004       9.21482671E-14
  0.546999991       7.89215224E-14
  0.547999978       6.11970124E-14
  0.549000025       3.94399682E-14
  0.550000012       1.42858205E-14
  0.550999999      -1.34818753E-14
  0.551999986      -4.29595256E-14
  0.552999973      -7.31563654E-14
  0.554000020      -1.03030838E-13
  0.555000007      -1.31528957E-13
  0.555999994      -1.57623155E-13
  0.556999981      -1.80350025E-13
  0.558000028      -1.98845443E-13
  0.559000015      -2.12375676E-13
  0.560000002      -2.20363306E-13
  0.560999990      -2.22407040E-13
  0.561999977      -2.18294580E-13
  0.563000023      -2.08008266E-13
  0.564000010      -1.91723414E-13
  0.564999998      -1.69799437E-13
  0.565999985      -1.42764476E-13
  0.566999972      -1.11294207E-13
  0.568000019      -7.61858702E-14
  0.569000006      -3.83288236E-14
  0.569999993       1.32718204E-15
  0.570999980       4.18045183E-14
  0.572000027       8.21295953E-14
  0.573000014       1.21362894E-13
  0.574000001       1.58625974E-13
  0.574999988       1.93124312E-13
  0.575999975       2.24165372E-13
  0.577000022       2.51171263E-13
  0.578000009       2.73685886E-13
  0.578999996       2.91376488E-13
  0.579999983       3.04030049E-13
  0.580999970       3.11545088E-13
  0.582000017       3.13919734E-13
  0.583000004       3.11236957E-13
  0.583999991       3.03648139E-13
  0.584999979       2.91356105E-13
  0.586000025       2.74598784E-13
  0.587000012       2.53634570E-13
  0.588000000       2.28730365E-13
  0.588999987       2.00153018E-13
  0.589999974       1.68164622E-13
  0.591000021       1.33022052E-13
  0.592000008       9.49807046E-14
  0.592999995       5.43020761E-14
  0.593999982       1.12646031E-14
  0.595000029      -3.38230352E-14
  0.596000016      -8.06071925E-14
  0.597000003      -1.28674279E-13
  0.597999990      -1.77536845E-13
  0.598999977      -2.26622025E-13
  0.600000024      -2.75263590E-13
  0.601000011      -3.22698546E-13
  0.601999998      -3.68069588E-13
  0.602999985      -4.10433731E-13
  0.603999972      -4.48777490E-13
  0.605000019      -4.82038780E-13
  0.606000006      -5.09135269E-13
  0.606999993      -5.28998015E-13
  0.607999980      -5.40609658E-13
  0.609000027      -5.43045860E-13
  0.610000014      -5.35517973E-13
  0.611000001      -5.17415429E-13
  0.611999989      -4.88345529E-13
  0.612999976      -4.48168683E-13
  0.614000022      -3.97027490E-13
  0.615000010      -3.35367449E-13
  0.615999997      -2.63947880E-13
  0.616999984      -1.83842064E-13
  0.617999971      -9.64254176E-14
  0.619000018      -3.35182457E-15
  0.620000005       9.34819984E-14
  0.620999992       1.91983121E-13
  0.621999979       2.89918995E-13
  0.623000026       3.84981977E-13
  0.624000013       4.74860006E-13
  0.625000000       5.57310545E-13
  0.625999987       6.30235068E-13
  0.626999974       6.91751344E-13
  0.628000021       7.40260175E-13
  0.629000008       7.74504050E-13
  0.629999995       7.93615011E-13
  0.630999982       7.97149131E-13
  0.632000029       7.85106138E-13
  0.633000016       7.57932833E-13
  0.634000003       7.16509588E-13
  0.634999990       6.62120044E-13
  0.635999978       5.96404816E-13
  0.637000024       5.21300776E-13
  0.638000011       4.38967927E-13
  0.638999999       3.51706620E-13
  0.639999986       2.61868543E-13
  0.640999973       1.71765054E-13
  0.642000020       8.35764563E-14
  0.643000007      -7.33439053E-16
  0.643999994      -7.94939743E-14
  0.644999981      -1.51391784E-13
  0.646000028      -2.15519415E-13
  0.647000015      -2.71405728E-13
  0.648000002      -3.19026435E-13
  0.648999989      -3.58793534E-13
  0.649999976      -3.91523890E-13
  0.651000023      -4.18387222E-13
  0.652000010      -4.40835790E-13
  0.652999997      -4.60518071E-13
  0.653999984      -4.79179847E-13
  0.654999971      -4.98556979E-13
  0.656000018      -5.20264279E-13
  0.657000005      -5.45685784E-13
  0.657999992      -5.75871111E-13
  0.658999979      -6.11443350E-13
  0.660000026      -6.52523283E-13
  0.661000013      -6.98673758E-13
  0.662000000      -7.48868307E-13
  0.662999988      -8.01486536E-13
  0.663999975      -8.54337705E-13
  0.665000021      -9.04713262E-13
  0.666000009      -9.49467718E-13
  0.666999996      -9.85125501E-13
  0.667999983      -1.00801127E-12
  0.669000030      -1.01439874E-12
  0.670000017      -1.00067318E-12
  0.671000004      -9.63501956E-13
  0.671999991      -9.00005331E-13
  0.672999978      -8.07921384E-13
  0.674000025      -6.85758145E-13
  0.675000012      -5.32925537E-13
  0.675999999      -3.49840979E-13
  0.676999986      -1.38003107E-13
  0.677999973       9.99710365E-14
  0.679000020       3.60348470E-13
  0.680000007       6.38324571E-13
  0.680999994       9.28109369E-13
  0.681999981       1.22305475E-12
  0.683000028       1.51581959E-12
  0.684000015       1.79856856E-12
  0.685000002       2.06319900E-12
  0.685999990       2.30158666E-12
  0.686999977       2.50584731E-12
  0.688000023       2.66859863E-12
  0.689000010       2.78321767E-12
  0.689999998       2.84408391E-12
  0.690999985       2.84679788E-12
  0.691999972       2.78836611E-12
  0.693000019       2.66734703E-12
  0.694000006       2.48395076E-12
  0.694999993       2.24008724E-12
  0.695999980       1.93936056E-12
  0.697000027       1.58700841E-12
  0.698000014       1.18978666E-12
  0.699000001       7.55804165E-13
  0.699999988       2.94309905E-13
  0.700999975      -1.84559182E-13
  0.702000022      -6.70062096E-13
  0.703000009      -1.15116055E-12
  0.703999996      -1.61683720E-12
  0.704999983      -2.05641580E-12
  0.705999970      -2.45987150E-12
  0.707000017      -2.81812030E-12
  0.708000004      -3.12327898E-12
  0.708999991      -3.36888503E-12
  0.709999979      -3.55006909E-12
  0.711000025      -3.66367527E-12
  0.712000012      -3.70832445E-12
  0.713000000      -3.68441779E-12
  0.713999987      -3.59408293E-12
  0.714999974      -3.44106362E-12
  0.716000021      -3.23055710E-12
  0.717000008      -2.96900720E-12
  0.717999995      -2.66386045E-12
  0.718999982      -2.32329390E-12
  0.720000029      -1.95592696E-12
  0.721000016      -1.57052659E-12
  0.722000003      -1.17571740E-12
  0.722999990      -7.79708871E-13
  0.723999977      -3.90048155E-13
  0.725000024      -1.34086535E-14
  0.726000011       3.44578912E-13
  0.726999998       6.79446245E-13
  0.727999985       9.87954835E-13
  0.728999972       1.26810921E-12
  0.730000019       1.51911610E-12
  0.731000006       1.74129396E-12
  0.731999993       1.93593600E-12
  0.732999980       2.10513378E-12
  0.734000027       2.25157046E-12
  0.735000014       2.37829374E-12
  0.736000001       2.48847709E-12
  0.736999989       2.58518163E-12
  0.737999976       2.67112916E-12
  0.739000022       2.74849696E-12
  0.740000010       2.81874372E-12
  0.740999997       2.88247464E-12
  0.741999984       2.93935210E-12
  0.742999971       2.98805642E-12
  0.744000018       3.02630013E-12
  0.745000005       3.05089439E-12
  0.745999992       3.05786624E-12
  0.746999979       3.04262323E-12
  0.748000026       3.00015785E-12
  0.749000013       2.92528393E-12
  0.750000000       2.81289597E-12
  0.750999987       2.65824038E-12
  0.751999974       2.45718788E-12
  0.753000021       2.20649475E-12
  0.754000008       1.90404225E-12
  0.754999995       1.54904442E-12
  0.755999982       1.14221284E-12
  0.757000029       6.85873342E-13
  0.758000016       1.84026758E-13
  0.759000003      -3.57649186E-13
  0.759999990      -9.31859299E-13
  0.760999978      -1.52981013E-12
  0.762000024      -2.14138603E-12
  0.763000011      -2.75537622E-12
  0.763999999      -3.35974824E-12
  0.764999986      -3.94195570E-12
  0.765999973      -4.48927093E-12
  0.767000020      -4.98913324E-12
  0.768000007      -5.42949756E-12
  0.768999994      -5.79917624E-12
  0.769999981      -6.08815776E-12
  0.771000028      -6.28789555E-12
  0.772000015      -6.39155569E-12
  0.773000002      -6.39421458E-12
  0.773999989      -6.29300388E-12
  0.774999976      -6.08719672E-12
  0.776000023      -5.77823249E-12
  0.777000010      -5.36968256E-12
  0.777999997      -4.86715789E-12
  0.778999984      -4.27816289E-12
  0.779999971      -3.61190418E-12
  0.781000018      -2.87905789E-12
  0.782000005      -2.09150687E-12
  0.782999992      -1.26205719E-12
  0.783999979      -4.04142187E-13
  0.785000026       4.68474651E-13
  0.786000013       1.34198956E-12
  0.787000000       2.20283253E-12
  0.787999988       3.03791801E-12
  0.788999975       3.83486602E-12
  0.790000021       4.58219010E-12
  0.791000009       5.26944807E-12
  0.791999996       5.88735527E-12
  0.792999983       6.42786041E-12
  0.794000030       6.88418723E-12
  0.795000017       7.25084446E-12
  0.796000004       7.52360674E-12
  0.796999991       7.69947474E-12
  0.797999978       7.77662136E-12
  0.799000025       7.75432323E-12
  0.800000012       7.63289085E-12
  0.800999999       7.41359838E-12
  0.801999986       7.09862117E-12
  0.802999973       6.69098067E-12
  0.804000020       6.19450021E-12
  0.805000007       5.61377464E-12
  0.805999994       4.95415384E-12
  0.806999981       4.22173537E-12
  0.808000028       3.42336684E-12
  0.809000015       2.56665435E-12
  0.810000002       1.65997077E-12
  0.810999990       7.12459985E-13
  0.811999977      -2.65967261E-13
  0.813000023      -1.26465212E-12
  0.814000010      -2.27222624E-12
  0.814999998      -3.27667234E-12
  0.815999985      -4.26541094E-12
  0.816999972      -5.22541645E-12
  0.818000019      -6.14335969E-12
  0.819000006      -7.00577964E-12
  0.819999993      -7.79928032E-12
  0.820999980      -8.51074853E-12
  0.822000027      -9.12758931E-12
  0.823000014      -9.63796837E-12
  0.824000001      -1.00310602E-11
  0.824999988      -1.02972899E-11
  0.825999975      -1.04285591E-11
  0.827000022      -1.04184526E-11
  0.828000009      -1.02624133E-11
  0.828999996      -9.95788174E-12
  0.829999983      -9.50439207E-12
  0.830999970      -8.90361743E-12
  0.832000017      -8.15936815E-12
  0.833000004      -7.27753621E-12
  0.833999991      -6.26598773E-12
  0.834999979      -5.13440766E-12
  0.836000025      -3.89409902E-12
  0.837000012      -2.55774330E-12
  0.838000000      -1.13913002E-12
  0.838999987       3.47136220E-13
  0.839999974       1.88594041E-12
  0.841000021       3.46196509E-12
  0.842000008       5.05999149E-12
  0.842999995       6.66518273E-12
  0.843999982       8.26333967E-12
  0.845000029       9.84112705E-12
  0.846000016       1.13862531E-11
  0.847000003       1.28876068E-11
  0.847999990       1.43353480E-11
  0.848999977       1.57209488E-11
  0.850000024       1.70371859E-11
  0.851000011       1.82780908E-11
  0.851999998       1.94388654E-11
  0.852999985       2.05157592E-11
  0.853999972       2.15059272E-11
  0.855000019       2.24072757E-11
  0.856000006       2.32183023E-11