   0.00000000       0.00000000    
   1.00000005E-03   0.00000000    
   2.00000009E-03   0.00000000    
   3.00000003E-03   0.00000000    
   4.00000019E-03   0.00000000    
   4.99999989E-03   0.00000000    
   6.00000005E-03   0.00000000    
   7.00000022E-03   0.00000000    
   8.00000038E-03   0.00000000    
   8.99999961E-03   0.00000000    
   9.99999978E-03   0.00000000    
   1.09999999E-02   1.42599809E-37
   1.20000001E-02   2.38220434E-36
   1.30000003E-02   1.69745316E-35
   1.40000004E-02   7.18998581E-35
   1.49999997E-02   2.68959283E-34
   1.60000008E-02   9.19091850E-34
   1.70000009E-02   2.84569881E-33
   1.79999992E-02   8.05532042E-33
   1.89999994E-02   2.10130136E-32
   1.99999996E-02   5.07957146E-32
   2.09999997E-02   1.14277705E-31
   2.19999999E-02   2.39773905E-31
   2.30000000E-02   4.68966622E-31
   2.40000002E-02   8.51342098E-31
   2.50000004E-02   1.41819378E-30
   2.60000005E-02   2.11135261E-30
   2.70000007E-02   2.62225462E-30
   2.80000009E-02   2.06706487E-30
   2.89999992E-02  -1.61865215E-30
   2.99999993E-02  -1.27383429E-29
   3.09999995E-02  -3.95872493E-29
   3.20000015E-02  -9.72163936E-29
   3.29999998E-02  -2.11593882E-28
   3.40000018E-02  -4.25590555E-28
   3.50000001E-02  -8.07192918E-28
   3.59999985E-02  -1.46020773E-27
   3.70000005E-02  -2.53739806E-27
   3.79999988E-02  -4.25540307E-27
   3.90000008E-02  -6.90984144E-27
   3.99999991E-02  -1.08875971E-26
   4.10000011E-02  -1.66713519E-26
   4.19999994E-02  -2.48289271E-26
   4.30000015E-02  -3.59769969E-26
   4.39999998E-02  -5.07053227E-26
   4.50000018E-02  -6.94442452E-26
   4.60000001E-02  -9.22552244E-26
   4.69999984E-02  -1.18522468E-25
   4.80000004E-02  -1.46524356E-25
   4.89999987E-02  -1.72867528E-25
   5.00000007E-02  -1.91775858E-25
   5.09999990E-02  -1.94242712E-25
   5.20000011E-02  -1.67079532E-25
   5.29999994E-02  -9.19284018E-26
   5.40000014E-02   5.56489600E-26
   5.49999997E-02   3.06837951E-25
   5.60000017E-02   6.99760940E-25
   5.70000000E-02   1.27889006E-24
   5.79999983E-02   2.09331380E-24
   5.90000004E-02   3.19343063E-24
   5.99999987E-02   4.62560819E-24
   6.10000007E-02   6.42434753E-24
   6.19999990E-02   8.60154446E-24
   6.30000010E-02   1.11325755E-23
   6.40000030E-02   1.39391580E-23
   6.49999976E-02   1.68692525E-23
   6.59999996E-02   1.96747590E-23
   6.70000017E-02   2.19883097E-23
   6.80000037E-02   2.33011857E-23
   6.89999983E-02   2.29451854E-23
   7.00000003E-02   2.00821125E-23
   7.10000023E-02   1.37054232E-23
   7.19999969E-02   2.65929192E-24
   7.29999989E-02  -1.43191302E-23
   7.40000010E-02  -3.85282190E-23
   7.50000030E-02  -7.11956055E-23
   7.59999976E-02  -1.13332453E-22
   7.69999996E-02  -1.65545503E-22
   7.80000016E-02  -2.27807025E-22
   7.90000036E-02  -2.99186542E-22
   7.99999982E-02  -3.77553550E-22
   8.10000002E-02  -4.59266034E-22
   8.20000023E-02  -5.38867123E-22
   8.29999968E-02  -6.08819269E-22
   8.39999989E-02  -6.59313233E-22
   8.50000009E-02  -6.78196064E-22
   8.60000029E-02  -6.51068488E-22
   8.69999975E-02  -5.61604442E-22
   8.79999995E-02  -3.92146694E-22
   8.90000015E-02  -1.24627540E-22
   9.00000036E-02   2.58146817E-22
   9.09999982E-02   7.70825500E-22
   9.20000002E-02   1.42345788E-21
   9.30000022E-02   2.21908648E-21
   9.39999968E-02   3.15105932E-21
   9.49999988E-02   4.20018202E-21
   9.60000008E-02   5.33187213E-21
   9.70000029E-02   6.49354148E-21
   9.79999974E-02   7.61247371E-21
   9.89999995E-02   8.59451885E-21
  0.100000001       9.32395482E-21
  0.101000004       9.66488975E-21
  0.101999998       9.46457472E-21
  0.103000000       8.55895735E-21
  0.104000002       6.78074845E-21
  0.104999997       3.97016483E-21
  0.105999999      -1.16469696E-23
  0.107000001      -5.26667835E-21
  0.108000003      -1.18420324E-20
  0.108999997      -1.97104732E-20
  0.109999999      -2.87505137E-20
  0.111000001      -3.87273103E-20
  0.112000003      -4.92758858E-20
  0.112999998      -5.98885097E-20
  0.114000000      -6.99081549E-20
  0.115000002      -7.85302397E-20
  0.115999997      -8.48145505E-20
  0.116999999      -8.77094112E-20
  0.118000001      -8.60895396E-20
  0.119000003      -7.88086764E-20
  0.119999997      -6.47672920E-20
  0.120999999      -4.29946704E-20
  0.122000001      -1.27436754E-20
  0.123000003       2.64048023E-20
  0.123999998       7.44321672E-20
  0.125000000       1.30772964E-19
  0.126000002       1.94213348E-19
  0.127000004       2.62805569E-19
  0.128000006       3.33807599E-19
  0.128999993       4.03657702E-19
  0.129999995       4.67993820E-19
  0.130999997       5.21726645E-19
  0.131999999       5.59174508E-19
  0.133000001       5.74265539E-19
  0.134000003       5.60809689E-19
  0.135000005       5.12839572E-19
  0.136000007       4.25014730E-19
  0.136999995       2.93078208E-19
  0.137999997       1.14348892E-19
  0.138999999      -1.11771863E-19
  0.140000001      -3.83307327E-19
  0.141000003      -6.95259005E-19
  0.142000005      -1.03924273E-18
  0.143000007      -1.40324636E-18
  0.143999994      -1.77154956E-18
  0.144999996      -2.12484233E-18
  0.145999998      -2.44057675E-18
  0.147000000      -2.69357925E-18
  0.148000002      -2.85693749E-18
  0.149000004      -2.90316676E-18
  0.150000006      -2.80564196E-18
  0.150999993      -2.54026463E-18
  0.151999995      -2.08731500E-18
  0.152999997      -1.43341467E-18
  0.153999999      -5.73511461E-19
  0.155000001       4.87224012E-19
  0.156000003       1.73171729E-18
  0.157000005       3.12965853E-18
  0.158000007       4.63666332E-18
  0.158999994       6.19406078E-18
  0.159999996       7.72944200E-18
  0.160999998       9.15806811E-18
  0.162000000       1.03852212E-17
  0.163000003       1.13095310E-17
  0.164000005       1.18272641E-17
  0.165000007       1.18375104E-17
  0.165999994       1.12481285E-17
  0.166999996       9.98226095E-18
  0.167999998       7.98514338E-18
  0.169000000       5.23089787E-18
  0.170000002       1.72891874E-18
  0.171000004      -2.47056143E-18
  0.172000006      -7.27217242E-18
  0.172999993      -1.25328178E-17
  0.173999995      -1.80612240E-17
  0.174999997      -2.36199968E-17
  0.175999999      -2.89305063E-17
  0.177000001      -3.36807663E-17
  0.178000003      -3.75363742E-17
  0.179000005      -4.01544207E-17
  0.180000007      -4.12000796E-17
  0.180999994      -4.03654213E-17
  0.181999996      -3.73897813E-17
  0.182999998      -3.20808369E-17
  0.184000000      -2.43353856E-17
  0.185000002      -1.41586504E-17
  0.186000004      -1.68088188E-18
  0.187000006       1.28300395E-17
  0.187999994       2.89612873E-17
  0.188999996       4.61542198E-17
  0.189999998       6.37109860E-17
  0.191000000       8.08093387E-17
  0.192000002       9.65261144E-17
  0.193000004       1.09869424E-16
  0.194000006       1.19819084E-16
  0.194999993       1.25374429E-16
  0.195999995       1.25608064E-16
  0.196999997       1.19723594E-16
  0.197999999       1.07114893E-16
  0.199000001       8.74241035E-17
  0.200000003       6.05951886E-17
  0.201000005       2.69196087E-17
  0.202000007      -1.29292648E-17
  0.202999994      -5.78763054E-17
  0.203999996      -1.06442402E-16
  0.204999998      -1.56762280E-16
  0.206000000      -2.06624277E-16
  0.207000002      -2.53532869E-16
  0.208000004      -2.94793909E-16
  0.209000006      -3.27621147E-16
  0.209999993      -3.49261569E-16
  0.210999995      -3.57135613E-16
  0.211999997      -3.48987236E-16
  0.213000000      -3.23037376E-16
  0.214000002      -2.78133883E-16
  0.215000004      -2.13889597E-16
  0.216000006      -1.30800456E-16
  0.216999993      -3.03352740E-17
  0.217999995       8.50109794E-17
  0.218999997       2.11707428E-16
  0.219999999       3.45226912E-16
  0.221000001       4.80139091E-16
  0.222000003       6.10258810E-16
  0.223000005       7.28849352E-16
  0.224000007       8.28877008E-16
  0.224999994       9.03310663E-16
  0.225999996       9.45456905E-16
  0.226999998       9.49319058E-16
  0.228000000       9.09965166E-16
  0.229000002       8.23887560E-16
  0.230000004       6.89337012E-16
  0.231000006       5.06611465E-16
  0.231999993       2.78280366E-16
  0.232999995       9.32742094E-18
  0.233999997      -2.92805340E-16
  0.234999999      -6.18284077E-16
  0.236000001      -9.55069564E-16
  0.237000003      -1.28922819E-15
  0.238000005      -1.60536545E-15
  0.238999993      -1.88717480E-15
  0.239999995      -2.11808826E-15
  0.240999997      -2.28200925E-15
  0.241999999      -2.36410072E-15
  0.243000001      -2.35159830E-15
  0.244000003      -2.23461246E-15
  0.245000005      -2.00688151E-15
  0.246000007      -1.66643452E-15
  0.246999994      -1.21612554E-15
  0.247999996      -6.64000668E-16
  0.248999998      -2.34645596E-17
  0.250000000       6.86781143E-16
  0.250999987       1.44304567E-15
  0.252000004       2.21721398E-15
  0.252999991       2.97756687E-15
  0.254000008       3.68984196E-15
  0.254999995       4.31851108E-15
  0.256000012       4.82823391E-15
  0.256999999       5.18544041E-15
  0.257999986       5.35997875E-15
  0.259000003       5.32676278E-15
  0.259999990       5.06734284E-15
  0.261000007       4.57132077E-15
  0.261999995       3.83753655E-15
  0.263000011       2.87494756E-15
  0.263999999       1.70313741E-15
  0.264999986       3.52400223E-16
  0.266000003      -1.13664029E-15
  0.266999990      -2.71389886E-15
  0.268000007      -4.32118432E-15
  0.268999994      -5.89402371E-15
  0.270000011      -7.36391217E-15
  0.270999998      -8.66092290E-15
  0.272000015      -9.71658599E-15
  0.273000002      -1.04669403E-14
  0.273999989      -1.08556293E-14
  0.275000006      -1.08369099E-14
  0.275999993      -1.03784355E-14
  0.277000010      -9.46367720E-15
  0.277999997      -8.09384959E-15
  0.279000014      -6.28921625E-15
  0.280000001      -4.08967666E-15
  0.280999988      -1.55455872E-15
  0.282000005       1.23843470E-15
  0.282999992       4.19513819E-15
  0.284000009       7.20767186E-15
  0.284999996       1.01579647E-14
  0.286000013       1.29219560E-14
  0.287000000       1.53743426E-14
  0.287999988       1.73936928E-14
  0.289000005       1.88677572E-14
  0.289999992       1.96987405E-14
  0.291000009       1.98083110E-14
  0.291999996       1.91421365E-14
  0.293000013       1.76737050E-14
  0.294000000       1.54072295E-14
  0.294999987       1.23794704E-14
  0.296000004       8.66031896E-15
  0.296999991       4.35204766E-15
  0.298000008      -4.12816330E-16
  0.298999995      -5.47498634E-15
  0.300000012      -1.06532198E-14
  0.300999999      -1.57502947E-14
  0.301999986      -2.05599935E-14
  0.303000003      -2.48748420E-14
  0.303999990      -2.84943476E-14
  0.305000007      -3.12334116E-14
  0.305999994      -3.29305844E-14
  0.307000011      -3.34558363E-14
  0.307999998      -3.27174743E-14
  0.308999985      -3.06679019E-14
  0.310000002      -2.73079424E-14
  0.310999990      -2.26894546E-14
  0.312000006      -1.69160764E-14
  0.312999994      -1.01419693E-14
  0.314000010      -2.56852069E-15
  0.314999998       5.56095553E-15
  0.316000015       1.39684093E-14
  0.317000002       2.23499333E-14
  0.317999989       3.03860602E-14
  0.319000006       3.77531529E-14
  0.319999993       4.41354445E-14
  0.321000010       4.92373781E-14
  0.321999997       5.27957195E-14
  0.323000014       5.45909888E-14
  0.324000001       5.44577573E-14
  0.324999988       5.22933950E-14
  0.326000005       4.80648507E-14
  0.326999992       4.18131614E-14
  0.328000009       3.36554345E-14
  0.328999996       2.37841380E-14
  0.330000013       1.24636223E-14
  0.331000000       2.39041168E-17
  0.331999987      -1.31481528E-14
  0.333000004      -2.66200449E-14
  0.333999991      -3.99269037E-14
  0.335000008      -5.25864515E-14
  0.335999995      -6.41151561E-14
  0.337000012      -7.40450656E-14
  0.338000000      -8.19407815E-14
  0.338999987      -8.74159889E-14
  0.340000004      -9.01489644E-14
  0.340999991      -8.98965147E-14
  0.342000008      -8.65058079E-14
  0.342999995      -7.99236640E-14
  0.344000012      -7.02028903E-14
  0.344999999      -5.75053582E-14
  0.345999986      -4.21016371E-14
  0.347000003      -2.43670203E-14
  0.347999990      -4.77397341E-15
  0.349000007       1.61188862E-14
  0.349999994       3.76810738E-14
  0.351000011       5.92274710E-14
  0.351999998       8.00381015E-14
  0.352999985       9.93798888E-14
  0.354000002       1.16529887E-13
  0.354999989       1.30799302E-13
  0.356000006       1.41557556E-13
  0.356999993       1.48255730E-13
  0.358000010       1.50448596E-13
  0.358999997       1.47814568E-13
  0.360000014       1.40172691E-13
  0.361000001       1.27496158E-13
  0.361999989       1.09921648E-13
  0.363000005       8.77539618E-14
  0.363999993       6.14656099E-14
  0.365000010       3.16909313E-14
  0.365999997      -7.85340150E-16
  0.367000014      -3.50450260E-14
  0.368000001      -7.00588676E-14
  0.368999988      -1.04713886E-13
  0.370000005      -1.37845261E-13
  0.370999992      -1.68271918E-13
  0.372000009      -1.94835006E-13
  0.372999996      -2.16438114E-13
  0.374000013      -2.32088058E-13
  0.375000000      -2.40934876E-13
  0.375999987      -2.42309672E-13
  0.377000004      -2.35758705E-13
  0.377999991      -2.21072401E-13
  0.379000008      -1.98307869E-13
  0.379999995      -1.67803569E-13
  0.381000012      -1.30185061E-13
  0.381999999      -8.63609789E-14
  0.382999986      -3.75085705E-14
  0.384000003       1.49513800E-14
  0.384999990       6.93901791E-14
  0.386000007       1.24016859E-13
  0.386999995       1.76932877E-13
  0.388000011       2.26194470E-13
  0.388999999       2.69880933E-13
  0.389999986       3.06166605E-13
  0.391000003       3.33394174E-13
  0.391999990       3.50146426E-13
  0.393000007       3.55313760E-13
  0.393999994       3.48154340E-13
  0.395000011       3.28344041E-13
  0.395999998       2.96013648E-13
  0.397000015       2.51770826E-13
  0.398000002       1.96704835E-13
  0.398999989       1.32372764E-13
  0.400000006       6.07665096E-14
  0.400999993      -1.57395832E-14
  0.402000010      -9.44594880E-14
  0.402999997      -1.72483135E-13
  0.404000014      -2.46778428E-13
  0.405000001      -3.14304545E-13
  0.405999988      -3.72132473E-13
  0.407000005      -4.17568378E-13
  0.407999992      -4.48274935E-13
  0.409000009      -4.62385447E-13
  0.409999996      -4.58605593E-13
  0.411000013      -4.36297618E-13
  0.412000000      -3.95542648E-13
  0.412999988      -3.37177091E-13
  0.414000005      -2.62799683E-13
  0.414999992      -1.74747478E-13
  0.416000009      -7.60397740E-14
  0.416999996       2.97097281E-14
  0.418000013       1.38410632E-13
  0.419000000       2.45640178E-13
  0.419999987       3.46809766E-13
  0.421000004       4.37347966E-13
  0.421999991       5.12893005E-13
  0.423000008       5.69487112E-13
  0.423999995       6.03765247E-13
  0.425000012       6.13128526E-13
  0.425999999       5.95895349E-13
  0.426999986       5.51421972E-13
  0.428000003       4.80185553E-13
  0.428999990       3.83824428E-13
  0.430000007       2.65131314E-13
  0.430999994       1.27997032E-13
  0.432000011      -2.26952111E-14
  0.432999998      -1.81223350E-13
  0.433999985      -3.41223713E-13
  0.435000002      -4.95925946E-13
  0.435999990      -6.38417541E-13
  0.437000006      -7.61928064E-13
  0.437999994      -8.60122249E-13
  0.439000010      -9.27389784E-13
  0.439999998      -9.59118960E-13
  0.441000015      -9.51942301E-13
  0.442000002      -9.03941798E-13
  0.442999989      -8.14803628E-13
  0.444000006      -6.85912264E-13
  0.444999993      -5.20378066E-13
  0.446000010      -3.22993910E-13
  0.446999997      -1.00118806E-13
  0.448000014       1.40509837E-13
  0.449000001       3.90030239E-13
  0.449999988       6.38769040E-13
  0.451000005       8.76602610E-13
  0.451999992       1.09335327E-12
  0.453000009       1.27920569E-12
  0.453999996       1.42512651E-12
  0.455000013       1.52326957E-12
  0.456000000       1.56734987E-12
  0.456999987       1.55296826E-12
  0.458000004       1.47787186E-12
  0.458999991       1.34213691E-12
  0.460000008       1.14826280E-12
  0.460999995       9.01170089E-13
  0.462000012       6.08099129E-13
  0.463000000       2.78409945E-13
  0.463999987      -7.67123723E-14
  0.465000004      -4.44637572E-13
  0.465999991      -8.11743034E-13
  0.467000008      -1.16392291E-12
  0.467999995      -1.48713409E-12
  0.469000012      -1.76795904E-12
  0.469999999      -1.99416091E-12
  0.470999986      -2.15520917E-12
  0.472000003      -2.24275242E-12
  0.472999990      -2.25101838E-12
  0.474000007      -2.17712155E-12
  0.474999994      -2.02126271E-12
  0.476000011      -1.78681072E-12
  0.476999998      -1.48025938E-12
  0.477999985      -1.11105710E-12
  0.479000002      -6.91313922E-13
  0.479999989      -2.35394793E-13
  0.481000006       2.40587389E-13
  0.481999993       7.19360389E-13
  0.483000010       1.18314061E-12
  0.483999997       1.61431599E-12
  0.485000014       1.99613568E-12
  0.486000001       2.31338017E-12
  0.486999989       2.55298300E-12
  0.488000005       2.70457810E-12
  0.488999993       2.76095076E-12
  0.490000010       2.71837067E-12
  0.490999997       2.57679208E-12
  0.492000014       2.33991255E-12
  0.493000001       2.01508406E-12
  0.493999988       1.61307903E-12
  0.495000005       1.14771940E-12
  0.495999992       6.35380854E-13
  0.497000009       9.43919693E-14
  0.497999996      -4.55648973E-13
  0.499000013      -9.94612812E-13
  0.500000000      -1.50260511E-12
  0.500999987      -1.96072737E-12
  0.501999974      -2.35180430E-12
  0.503000021      -2.66104716E-12
  0.504000008      -2.87662732E-12
  0.504999995      -2.99013657E-12
  0.505999982      -2.99691500E-12
  0.507000029      -2.89623447E-12
  0.508000016      -2.69133088E-12
  0.509000003      -2.38928235E-12
  0.509999990      -2.00073963E-12
  0.510999978      -1.53952111E-12
  0.512000024      -1.02208725E-12
  0.513000011      -4.66916761E-13
  0.513999999       1.06190257E-13
  0.514999986       6.76854026E-13
  0.515999973       1.22487209E-12
  0.517000020       1.73096238E-12
  0.518000007       2.17746242E-12
  0.518999994       2.54895909E-12
  0.519999981       2.83282447E-12
  0.521000028       3.01963966E-12
  0.522000015       3.10349121E-12
  0.523000002       3.08213090E-12
  0.523999989       2.95699749E-12
  0.524999976       2.73310107E-12
  0.526000023       2.41877872E-12
  0.527000010       2.02533454E-12
  0.527999997       1.56657955E-12
  0.528999984       1.05829473E-12
  0.529999971       5.17638070E-13
  0.531000018      -3.74790260E-14
  0.532000005      -5.89021507E-13
  0.532999992      -1.11944254E-12
  0.533999979      -1.61225547E-12
  0.535000026      -2.05254607E-12
  0.536000013      -2.42740984E-12
  0.537000000      -2.72629965E-12
  0.537999988      -2.94127873E-12
  0.538999975      -3.06717347E-12
  0.540000021      -3.10162659E-12
  0.541000009      -3.04505574E-12
  0.541999996      -2.90052531E-12
  0.542999983      -2.67354259E-12
  0.544000030      -2.37179048E-12
  0.545000017      -2.00481190E-12
  0.546000004      -1.58366083E-12
  0.546999991      -1.12053476E-12
  0.547999978      -6.28402603E-13
  0.549000025      -1.20639962E-13
  0.550000012       3.89316861E-13
  0.550999999       8.88290797E-13
  0.551999986       1.36365170E-12
  0.552999973       1.80356890E-12
  0.554000020       2.19722721E-12
  0.555000007       2.53500779E-12
  0.555999994       2.80863700E-12
  0.556999981       3.01130540E-12
  0.558000028       3.13776240E-12
  0.559000015       3.18439003E-12
  0.560000002       3.14925928E-12
  0.560999990       3.03217282E-12
  0.561999977       2.83469342E-12
  0.563000023       2.56015825E-12
  0.564000010       2.21367716E-12
  0.564999998       1.80211163E-12
  0.565999985       1.33402913E-12
  0.566999972       8.19626376E-13
  0.568000019       2.70615886E-13
  0.569000006      -2.99930491E-13
  0.569999993      -8.77786559E-13
  0.570999980      -1.44782884E-12
  0.572000027      -1.99434740E-12
  0.573000014      -2.50140945E-12
  0.574000001      -2.95327218E-12
  0.574999988      -3.33483631E-12
  0.575999975      -3.63213062E-12
  0.577000022      -3.83281124E-12
  0.578000009      -3.92666108E-12
  0.578999996      -3.90606774E-12
  0.579999983      -3.76645980E-12
  0.580999970      -3.50667824E-12
  0.582000017      -3.12926204E-12
  0.583000004      -2.64062838E-12
  0.583999991      -2.05112815E-12
  0.584999979      -1.37496416E-12
  0.586000025      -6.29962337E-13
  0.587000012       1.62807485E-13
  0.588000000       9.79558231E-13
  0.588999987       1.79445087E-12
  0.589999974       2.58038209E-12
  0.591000021       3.30987126E-12
  0.592000008       3.95601954E-12
  0.592999995       4.49350409E-12
  0.593999982       4.89957857E-12
  0.595000029       5.15502745E-12
  0.596000016       5.24504442E-12
  0.597000003       5.15999049E-12
  0.597999990       4.89599507E-12
  0.598999977       4.45536793E-12
  0.600000024       3.84679701E-12
  0.601000011       3.08531109E-12
  0.601999998       2.19199962E-12
  0.602999985       1.19348737E-12
  0.603999972       1.21175531E-13
  0.605000019      -9.89731517E-13
  0.606000006      -2.10138417E-12
  0.606999993      -3.17459275E-12
  0.607999980      -4.17023230E-12
  0.609000027      -5.05069641E-12
  0.610000014      -5.78134415E-12
  0.611000001      -6.33188250E-12
  0.611999989      -6.67762894E-12
  0.612999976      -6.80059785E-12
  0.614000022      -6.69036484E-12
  0.615000010      -6.34466828E-12
  0.615999997      -5.76971543E-12
  0.616999984      -4.98017426E-12
  0.617999971      -3.99884206E-12
  0.619000018      -2.85599539E-12
  0.620000005      -1.58844227E-12
  0.620999992      -2.38301187E-13
  0.621999979       1.14844744E-12
  0.623000026       2.52358637E-12
  0.624000013       3.83840399E-12
  0.625000000       5.04548963E-12
  0.625999987       6.10051116E-12
  0.626999974       6.96390558E-12
  0.628000021       7.60241609E-12
  0.629000008       7.99041736E-12
  0.629999995       8.11096589E-12
  0.630999982       7.95653907E-12
  0.632000029       7.52942934E-12
  0.633000016       6.84176934E-12
  0.634000003       5.91518935E-12
  0.634999990       4.78011164E-12
  0.635999978       3.47470533E-12
  0.637000024       2.04354567E-12
  0.638000011       5.36018495E-13
  0.638999999      -9.95466947E-13
  0.639999986      -2.49738901E-12
  0.640999973      -3.91707673E-12
  0.642000020      -5.20465225E-12
  0.643000007      -6.31487440E-12
  0.643999994      -7.20881558E-12
  0.644999981      -7.85530755E-12
  0.646000028      -8.23210163E-12
  0.647000015      -8.32669350E-12
  0.648000002      -8.13678725E-12
  0.648999989      -7.67037909E-12
  0.649999976      -6.94545506E-12
  0.651000023      -5.98931755E-12
  0.652000010      -4.83756655E-12
  0.652999997      -3.53277151E-12
  0.653999984      -2.12288824E-12
  0.654999971      -6.59478169E-13
  0.656000018       8.04200565E-13
  0.657000005       2.21515840E-12
  0.657999992       3.52262338E-12
  0.658999979       4.67990013E-12
  0.660000026       5.64607085E-12
  0.661000013       6.38747388E-12
  0.662000000       6.87890933E-12
  0.662999988       7.10452487E-12
  0.663999975       7.05835347E-12
  0.665000021       6.74448518E-12
  0.666000009       6.17686935E-12
  0.666999996       5.37875473E-12
  0.667999983       4.38179354E-12
  0.669000030       3.22484379E-12
  0.670000017       1.95251519E-12
  0.671000004       6.13514935E-13
  0.671999991      -7.41145806E-13
  0.672999978      -2.06001774E-12
  0.674000025      -3.29308390E-12
  0.675000012      -4.39356754E-12
  0.675999999      -5.31961194E-12
  0.676999986      -6.03577301E-12
  0.677999973      -6.51427436E-12
  0.679000020      -6.73597809E-12
  0.680000007      -6.69104529E-12
  0.680999994      -6.37925737E-12
  0.681999981      -5.80999745E-12
  0.683000028      -5.00189083E-12
  0.684000015      -3.98211976E-12
  0.685000002      -2.78544332E-12
  0.685999990      -1.45295386E-12
  0.686999977      -3.06193330E-14
  0.688000023       1.43233667E-12
  0.689000010       2.88515999E-12
  0.689999998       4.27733630E-12
  0.690999985       5.56034125E-12
  0.691999972       6.68931533E-12
  0.693000019       7.62460321E-12
  0.694000006       8.33310330E-12
  0.694999993       8.78938849E-12
  0.695999980       8.97655561E-12
  0.697000027       8.88677760E-12
  0.698000014       8.52154458E-12
  0.699000001       7.89158409E-12
  0.699999988       7.01646510E-12
  0.700999975       5.92390286E-12
  0.702000022       4.64879047E-12
  0.703000009       3.23199020E-12
  0.703999996       1.71892643E-12
  0.704999983       1.58031086E-13
  0.705999970      -1.40090500E-12
  0.707000017      -2.90842177E-12
  0.708000004      -4.31705843E-12
  0.708999991      -5.58294687E-12
  0.709999979      -6.66727567E-12
  0.711000025      -7.53757647E-12
  0.712000012      -8.16878943E-12
  0.713000000      -8.54406997E-12
  0.713999987      -8.65531865E-12
  0.714999974      -8.50340805E-12
  0.716000021      -8.09810812E-12
  0.717000008      -7.45770980E-12
  0.717999995      -6.60836360E-12
  0.718999982      -5.58315980E-12
  0.720000029      -4.42097834E-12
  0.721000016      -3.16515347E-12
  0.722000003      -1.86200122E-12
  0.722999990      -5.59257447E-13
  0.723999977       6.95516724E-13
  0.725000024       1.85650475E-12
  0.726000011       2.88112936E-12
  0.726999998       3.73141925E-12
  0.727999985       4.37520159E-12
  0.728999972       4.78708089E-12
  0.730000019       4.94917388E-12
  0.731000006       4.85157704E-12
  0.731999993       4.49255433E-12
  0.732999980       3.87844314E-12
  0.734000027       3.02328648E-12
  0.735000014       1.94820722E-12
  0.736000001       6.80553975E-13
  0.736999989      -7.47146648E-13
  0.737999976      -2.29839455E-12
  0.739000022      -3.93402498E-12
  0.740000010      -5.61357601E-12
  0.740999997      -7.29666241E-12
  0.741999984      -8.94430884E-12
  0.742999971      -1.05201924E-11
  0.744000018      -1.19917505E-11
  0.745000005      -1.33311209E-11
  0.745999992      -1.45158850E-11
  0.746999979      -1.55295915E-11
  0.748000026      -1.63620471E-11
  0.749000013      -1.70093731E-11
  0.750000000      -1.74738383E-11
  0.750999987      -1.77634799E-11
  0.751999974      -1.78915320E-11
  0.753000021      -1.78756992E-11
  0.754000008      -1.77373029E-11
  0.754999995      -1.75003415E-11
  0.755999982      -1.71905060E-11
  0.757000029      -1.68341903E-11
  0.758000016      -1.64575385E-11
  0.759000003      -1.60855548E-11
  0.759999990      -1.57413128E-11
  0.760999978      -1.54452943E-11
  0.762000024      -1.52148676E-11
  0.763000011      -1.50639223E-11
  0.763999999      -1.50026588E-11
  0.764999986      -1.50375337E-11
  0.765999973      -1.51713503E-11
  0.767000020      -1.54034719E-11
  0.768000007      -1.57301550E-11
  0.768999994      -1.61449569E-11
  0.769999981      -1.66392004E-11
  0.771000028      -1.72024773E-11
  0.772000015      -1.78231509E-11
  0.773000002      -1.84888424E-11
  0.773999989      -1.91868795E-11
  0.774999976      -1.99046821E-11
  0.776000023      -2.06300862E-11
  0.777000010      -2.13516010E-11
  0.777999997      -2.20585755E-11
  0.778999984      -2.27413054E-11
  0.779999971      -2.33910825E-11
  0.781000018      -2.40001803E-11
  0.782000005      -2.45618092E-11
  0.782999992      -2.50700589E-11
  0.783999979      -2.55198328E-11
  0.785000026      -2.59067941E-11
  0.786000013      -2.62273484E-11
  0.787000000      -2.64786526E-11
  0.787999988      -2.66586718E-11
  0.788999975      -2.67662819E-11
  0.790000021      -2.68014170E-11
  0.791000009      -2.67652567E-11
  0.791999996      -2.66604256E-11
  0.792999983      -2.64912120E-11
  0.794000030      -2.62637724E-11
  0.795000017      -2.59863034E-11
  0.796000004      -2.56691595E-11
  0.796999991      -2.53249054E-11
  0.797999978      -2.49682740E-11
  0.799000025      -2.46160245E-11
  0.800000012      -2.42866907E-11
  0.800999999      -2.40001942E-11
  0.801999986      -2.37773603E-11
  0.802999973      -2.36393283E-11
  0.804000020      -2.36068578E-11
  0.805000007      -2.36995788E-11
  0.805999994      -2.39352115E-11
  0.806999981      -2.43287630E-11
  0.808000028      -2.48917449E-11
  0.809000015      -2.56314865E-11
  0.810000002      -2.65505309E-11
  0.810999990      -2.76461683E-11
  0.811999977      -2.89101434E-11
  0.813000023      -3.03285556E-11
  0.814000010      -3.18819728E-11
  0.814999998      -3.35457495E-11
  0.815999985      -3.52906003E-11
  0.816999972      -3.70833676E-11
  0.818000019      -3.88879692E-11
  0.819000006      -4.06665292E-11
  0.819999993      -4.23806441E-11
  0.820999980      -4.39927331E-11
  0.822000027      -4.54674076E-11
  0.823000014      -4.67728391E-11
  0.824000001      -4.78820386E-11
  0.824999988      -4.87740230E-11
  0.825999975      -4.94348278E-11
  0.827000022      -4.98582599E-11
  0.828000009      -5.00464080E-11
  0.828999996      -5.00098747E-11
  0.829999983      -4.97677108E-11
  0.830999970      -4.93470299E-11
  0.832000017      -4.87823185E-11
  0.833000004      -4.81144673E-11
  0.833999991      -4.73895437E-11
  0.834999979      -4.66573793E-11
  0.836000025      -4.59699501E-11
  0.837000012      -4.53796688E-11
  0.838000000      -4.49376508E-11
  0.838999987      -4.46919585E-11
  0.839999974      -4.46859702E-11
  0.841000021      -4.49568612E-11
  0.842000008      -4.55342743E-11
  0.842999995      -4.64392726E-11
  0.843999982      -4.76835758E-11
  0.845000029      -4.92690923E-11
  0.846000016      -5.11877693E-11
  0.847000003      -5.34218329E-11
  0.847999990      -5.59443464E-11
  0.848999977      -5.87200219E-11
  0.850000024      -6.17063900E-11
  0.851000011      -6.48551629E-11
  0.851999998      -6.81137924E-11
  0.852999985      -7.14271628E-11
  0.853999972      -7.47393397E-11
  0.855000019      -7.79953810E-11
  0.856000006      -8.11430437E-11