   0.00000000       0.00000000    
   1.00000005E-03   0.00000000    
   2.00000009E-03   0.00000000    
   3.00000003E-03   0.00000000    
   4.00000019E-03   0.00000000    
   4.99999989E-03   0.00000000    
   6.00000005E-03   0.00000000    
   7.00000022E-03   0.00000000    
   8.00000038E-03   0.00000000    
   8.99999961E-03   0.00000000    
   9.99999978E-03   6.42435931E-38
   1.09999999E-02   1.36028279E-36
   1.20000001E-02   1.38333013E-35
   1.30000003E-02   8.00358058E-35
   1.40000004E-02   3.74272580E-34
   1.49999997E-02   1.50081416E-33
   1.60000008E-02   5.33542523E-33
   1.70000009E-02   1.71938310E-32
   1.79999992E-02   5.08498814E-32
   1.89999994E-02   1.39432179E-31
   1.99999996E-02   3.57522281E-31
   2.09999997E-02   8.63241862E-31
   2.19999999E-02   1.97374322E-30
   2.30000000E-02   4.29323526E-30
   2.40000002E-02   8.91868817E-30
   2.50000004E-02   1.77520998E-29
   2.60000005E-02   3.39466458E-29
   2.70000007E-02   6.25014341E-29
   2.80000009E-02   1.10987888E-28
   2.89999992E-02   1.90330243E-28
   2.99999993E-02   3.15461282E-28
   3.09999995E-02   5.05520884E-28
   3.20000015E-02   7.83050326E-28
   3.29999998E-02   1.17135830E-27
   3.40000018E-02   1.68890575E-27
   3.50000001E-02   2.33920524E-27
   3.59999985E-02   3.09441687E-27
   3.70000005E-02   3.87063539E-27
   3.79999988E-02   4.49293494E-27
   3.90000008E-02   4.64873189E-27
   3.99999991E-02   3.82916512E-27
   4.10000011E-02   1.26017814E-27
   4.19999994E-02  -4.17194097E-27
   4.30000015E-02  -1.39914928E-26
   4.39999998E-02  -3.01860769E-26
   4.50000018E-02  -5.52195608E-26
   4.60000001E-02  -9.19760601E-26
   4.69999984E-02  -1.43597928E-25
   4.80000004E-02  -2.13173784E-25
   4.89999987E-02  -3.03228222E-25
   5.00000007E-02  -4.14965044E-25
   5.09999990E-02  -5.47222949E-25
   5.20000011E-02  -6.95119528E-25
   5.29999994E-02  -8.48388645E-25
   5.40000014E-02  -9.89460936E-25
   5.49999997E-02  -1.09139813E-24
   5.60000017E-02  -1.11587077E-24
   5.70000000E-02  -1.01146207E-24
   5.79999983E-02  -7.12686031E-25
   5.90000004E-02  -1.40218078E-25
   5.99999987E-02   7.97063678E-25
   6.10000007E-02   2.19755093E-24
   6.19999990E-02   4.15918077E-24
   6.30000010E-02   6.76783887E-24
   6.40000030E-02   1.00813331E-23
   6.49999976E-02   1.41086321E-23
   6.59999996E-02   1.87844442E-23
   6.70000017E-02   2.39397465E-23
   6.80000037E-02   2.92695921E-23
   6.89999983E-02   3.43003884E-23
   7.00000003E-02   3.83598351E-23
   7.10000023E-02   4.05537740E-23
   7.19999969E-02   3.97552859E-23
   7.29999989E-02   3.46123388E-23
   7.40000010E-02   2.35809678E-23
   7.50000030E-02   4.99130202E-24
   7.59999976E-02  -2.28465446E-23
   7.69999996E-02  -6.14908556E-23
   7.80000016E-02  -1.12167059E-22
   7.90000036E-02  -1.75516212E-22
   7.99999982E-02  -2.51296955E-22
   8.10000002E-02  -3.38050223E-22
   8.20000023E-02  -4.32743041E-22
   8.29999968E-02  -5.30415330E-22
   8.39999989E-02  -6.23861395E-22
   8.50000009E-02  -7.03387410E-22
   8.60000029E-02  -7.56692192E-22
   8.69999975E-02  -7.68925317E-22
   8.79999995E-02  -7.22979938E-22
   8.90000015E-02  -6.00076671E-22
   9.00000036E-02  -3.80689632E-22
   9.09999982E-02  -4.58544271E-23
   9.20000002E-02   4.21120608E-22
   9.30000022E-02   1.03254476E-21
   9.39999968E-02   1.79387525E-21
   9.49999988E-02   2.70096482E-21
   9.60000008E-02   3.73715394E-21
   9.70000029E-02   4.87038331E-21
   9.79999974E-02   6.05055113E-21
   9.89999995E-02   7.20739916E-21
  0.100000001       8.24923880E-21
  0.101000004       9.06287110E-21
  0.101999998       9.51506263E-21
  0.103000000       9.45592002E-21
  0.104000002       8.72447345E-21
  0.104999997       7.15669961E-21
  0.105999999       4.59610467E-21
  0.107000001       9.06823808E-22
  0.108000003      -4.01097617E-21
  0.108999997      -1.02038512E-20
  0.109999999      -1.76466802E-20
  0.111000001      -2.62240876E-20
  0.112000003      -3.57128961E-20
  0.112999998      -4.57671052E-20
  0.114000000      -5.59070567E-20
  0.115000002      -6.55145851E-20
  0.115999997      -7.38360414E-20
  0.116999999      -7.99949504E-20
  0.118000001      -8.30158850E-20
  0.119000003      -8.18607661E-20
  0.119999997      -7.54782534E-20
  0.120999999      -6.28662629E-20
  0.122000001      -4.31466422E-20
  0.123000003      -1.56501683E-20
  0.123999998       1.99910975E-20
  0.125000000       6.37482572E-20
  0.126000002       1.15102118E-19
  0.127000004       1.72958064E-19
  0.128000006       2.35576515E-19
  0.128999993       3.00526685E-19
  0.129999995       3.64671698E-19
  0.130999997       4.24192694E-19
  0.131999999       4.74658983E-19
  0.133000001       5.11149797E-19
  0.134000003       5.28431410E-19
  0.135000005       5.21190219E-19
  0.136000007       4.84320091E-19
  0.136999995       4.13257289E-19
  0.137999997       3.04353584E-19
  0.138999999       1.55272839E-19
  0.140000001      -3.46072012E-20
  0.141000003      -2.63810464E-19
  0.142000005      -5.28421225E-19
  0.143000007      -8.21813555E-19
  0.143999994      -1.13448090E-18
  0.144999996      -1.45399482E-18
  0.145999998      -1.76511823E-18
  0.147000000      -2.05009663E-18
  0.148000002      -2.28914294E-18
  0.149000004      -2.46112247E-18
  0.150000006      -2.54443879E-18
  0.150999993      -2.51810115E-18
  0.151999995      -2.36295185E-18
  0.152999997      -2.06300913E-18
  0.153999999      -1.60687155E-18
  0.155000001      -9.89118278E-19
  0.156000003      -2.11626870E-19
  0.157000005       7.15278637E-19
  0.158000007       1.77193812E-18
  0.158999994       2.92881618E-18
  0.159999996       4.14639833E-18
  0.160999998       5.37559906E-18
  0.162000000       6.55873824E-18
  0.163000003       7.63112414E-18
  0.164000005       8.52325166E-18
  0.165000007       9.16358872E-18
  0.165999994       9.48189526E-18
  0.166999996       9.41297540E-18
  0.167999998       8.90072230E-18
  0.169000000       7.90229545E-18
  0.170000002       6.39221520E-18
  0.171000004       4.36615209E-18
  0.172000006       1.84417167E-18
  0.172999993      -1.12682338E-18
  0.173999995      -4.47168214E-18
  0.174999997      -8.08684689E-18
  0.175999999      -1.18416232E-17
  0.177000001      -1.55810023E-17
  0.178000003      -1.91300968E-17
  0.179000005      -2.23001722E-17
  0.180000007      -2.48961446E-17
  0.180999994      -2.67253768E-17
  0.181999996      -2.76074524E-17
  0.182999998      -2.73845454E-17
  0.184000000      -2.59319302E-17
  0.185000002      -2.31680981E-17
  0.186000004      -1.90639025E-17
  0.187000006      -1.36501551E-17
  0.187999994      -7.02307773E-18
  0.188999996       6.52906479E-19
  0.189999998       9.14549828E-18
  0.191000000       1.81583118E-17
  0.192000002       2.73383077E-17
  0.193000004       3.62869080E-17
  0.194000006       4.45746125E-17
  0.194999993       5.17587357E-17
  0.195999995       5.74037008E-17
  0.196999997       6.11030841E-17
  0.197999999       6.25024752E-17
  0.199000001       6.13220289E-17
  0.200000003       5.73775222E-17
  0.201000005       5.05986546E-17
  0.202000007       4.10433553E-17
  0.202999994       2.89069713E-17
  0.203999996       1.45253379E-17
  0.204999998      -1.62901558E-18
  0.206000000      -1.89580069E-17
  0.207000002      -3.67565977E-17
  0.208000004      -5.42385769E-17
  0.209000006      -7.05688228E-17
  0.209999993      -8.49009843E-17
  0.210999995      -9.64190640E-17
  0.211999997      -1.04381041E-16
  0.213000000      -1.08162435E-16
  0.214000002      -1.07297468E-16
  0.215000004      -1.01515403E-16
  0.216000006      -9.07696984E-17
  0.216999993      -7.52578318E-17
  0.217999995      -5.54298625E-17
  0.218999997      -3.19843347E-17
  0.219999999      -5.85066584E-18
  0.221000001       2.18421905E-17
  0.222000003       4.98102092E-17
  0.223000005       7.66705769E-17
  0.224000007       1.01007706E-16
  0.224999994       1.21446128E-16
  0.225999996       1.36726788E-16
  0.226999998       1.45782893E-16
  0.228000000       1.47810968E-16
  0.229000002       1.42332783E-16
  0.230000004       1.29244006E-16
  0.231000006       1.08845745E-16
  0.231999993       8.18558214E-17
  0.232999995       4.93975222E-17
  0.233999997       1.29646747E-17
  0.234999999      -2.56368650E-17
  0.236000001      -6.43698585E-17
  0.237000003      -1.01065615E-16
  0.238000005      -1.33538979E-16
  0.238999993      -1.59712827E-16
  0.239999995      -1.77745827E-16
  0.240999997      -1.86156017E-16
  0.241999999      -1.83932768E-16
  0.243000001      -1.70629493E-16
  0.244000003      -1.46430080E-16
  0.245000005      -1.12183002E-16
  0.246000007      -6.93982498E-17
  0.246999994      -2.02042091E-17
  0.247999996       3.27363477E-17
  0.248999998       8.63494900E-17
  0.250000000       1.37308594E-16
  0.250999987       1.82221602E-16
  0.252000004       2.17837922E-16
  0.252999991       2.41264418E-16
  0.254000008       2.50177904E-16
  0.254999995       2.43020794E-16
  0.256000012       2.19166466E-16
  0.256999999       1.79041007E-16
  0.257999986       1.24190290E-16
  0.259000003       5.72824162E-17
  0.259999990      -1.79604502E-17
  0.261000007      -9.69038779E-17
  0.261999995      -1.74214746E-16
  0.263000011      -2.44140730E-16
  0.263999999      -3.00845192E-16
  0.264999986      -3.38781971E-16
  0.266000003      -3.53091825E-16
  0.266999990      -3.39997278E-16
  0.268000007      -2.97172245E-16
  0.268999994      -2.24060649E-16
  0.270000011      -1.22118831E-16
  0.270999998       5.04081880E-18
  0.272000015       1.51624986E-16
  0.273000002       3.09767493E-16
  0.273999989       4.69778449E-16
  0.275000006       6.20535067E-16
  0.275999993       7.50006064E-16
  0.277000010       8.45893317E-16
  0.277999997       8.96365628E-16
  0.279000014       8.90850385E-16
  0.280000001       8.20844171E-16
  0.280999988       6.80695264E-16
  0.282000005       4.68309799E-16
  0.282999992       1.85731654E-16
  0.284000009      -1.60451969E-16
  0.284999996      -5.58921996E-16
  0.286000013      -9.93691196E-16
  0.287000000      -1.44444380E-15
  0.287999988      -1.88716357E-15
  0.289000005      -2.29504466E-15
  0.289999992      -2.63966680E-15
  0.291000009      -2.89239644E-15
  0.291999996      -3.02596041E-15
  0.293000013      -3.01612339E-15
  0.294000000      -2.84338648E-15
  0.294999987      -2.49461685E-15
  0.296000004      -1.96451102E-15
  0.296999991      -1.25679297E-15
  0.298000008      -3.85056413E-16
  0.298999995       6.26833815E-16
  0.300000012       1.74484743E-15
  0.300999999       2.92544724E-15
  0.301999986       4.11682322E-15
  0.303000003       5.26069336E-15
  0.303999990       6.29462963E-15
  0.305000007       7.15484495E-15
  0.305999994       7.77933185E-15
  0.307000011       8.11122393E-15
  0.307999998       8.10222759E-15
  0.308999985       7.71594753E-15
  0.310000002       6.93092586E-15
  0.310999990       5.74320568E-15
  0.312000006       4.16824151E-15
  0.312999994       2.24200028E-15
  0.314000010       2.11201313E-17
  0.314999998      -2.41796990E-15
  0.316000015      -4.98101409E-15
  0.317000002      -7.55897623E-15
  0.317999989      -1.00321075E-14
  0.319000006      -1.22749152E-14
  0.319999993      -1.41618606E-14
  0.321000010      -1.55735545E-14
  0.321999997      -1.64031810E-14
  0.323000014      -1.65628365E-14
  0.324000001      -1.59894596E-14
  0.324999988      -1.46500159E-14
  0.326000005      -1.25456108E-14
  0.326999992      -9.71423547E-15
  0.328000009      -6.23189583E-15
  0.328999996      -2.21193633E-15
  0.330000013       2.19755075E-15
  0.331000000       6.81824931E-15
  0.331999987       1.14480069E-14
  0.333000004       1.58689082E-14
  0.333999991       1.98567494E-14
  0.335000008       2.31915622E-14
  0.335999995       2.56687134E-14
  0.337000012       2.71100925E-14
  0.338000000       2.73748157E-14
  0.338999987       2.63688709E-14
  0.340000004       2.40531489E-14
  0.340999991       2.04493405E-14
  0.342000008       1.56432416E-14
  0.342999995       9.78510757E-15
  0.344000012       3.08684302E-15
  0.344999999      -4.18407044E-15
  0.345999986      -1.17138355E-14
  0.347000003      -1.91545490E-14
  0.347999990      -2.61389506E-14
  0.349000007      -3.22971562E-14
  0.349999994      -3.72746776E-14
  0.351000011      -4.07508906E-14
  0.351999998      -4.24571030E-14
  0.352999985      -4.21932420E-14
  0.354000002      -3.98422614E-14
  0.354999989      -3.53814065E-14
  0.356000006      -2.88895190E-14
  0.356999993      -2.05497952E-14
  0.358000010      -1.06475616E-14
  0.358999997       4.37182503E-16
  0.360000014       1.22423900E-14
  0.361000001       2.42414629E-14
  0.361999989       3.58650724E-14
  0.363000005       4.65264661E-14
  0.363999993       5.56492413E-14
  0.365000010       6.26963284E-14
  0.365999997       6.71987897E-14
  0.367000014       6.87830462E-14
  0.368000001       6.71950085E-14
  0.368999988       6.23197240E-14
  0.370000005       5.41952889E-14
  0.370999992       4.30199869E-14
  0.372000009       2.91518722E-14
  0.372999996       1.31003784E-14
  0.374000013      -4.49012928E-15
  0.375000000      -2.28644838E-14
  0.375999987      -4.11877800E-14
  0.377000004      -5.85822216E-14
  0.377999991      -7.41682174E-14
  0.379000008      -8.71079264E-14
  0.379999995      -9.66491766E-14
  0.381000012      -1.02167562E-13
  0.381999999      -1.03204493E-13
  0.382999986      -9.94990088E-14
  0.384000003      -9.10114269E-14
  0.384999990      -7.79371210E-14
  0.386000007      -6.07091553E-14
  0.386999995      -3.99890251E-14
  0.388000011      -1.66452952E-14
  0.388999999       8.27952344E-15
  0.389999986       3.36127983E-14
  0.391000003       5.81046780E-14
  0.391999990       8.04879235E-14
  0.393000007       9.95419635E-14
  0.393999994       1.14158195E-13
  0.395000011       1.23403200E-13
  0.395999998       1.26576524E-13
  0.397000015       1.23259760E-13
  0.398000002       1.13353852E-13
  0.398999989       9.71020614E-14
  0.400000006       7.50965587E-14
  0.400999993       4.82672848E-14
  0.402000010       1.78526373E-14
  0.402999997      -1.46476289E-14
  0.404000014      -4.75358820E-14
  0.405000001      -7.89942452E-14
  0.405999988      -1.07173256E-13
  0.407000005      -1.30287599E-13
  0.407999992      -1.46714495E-13
  0.409000009      -1.55089835E-13
  0.409999996      -1.54396949E-13
  0.411000013      -1.44043062E-13
  0.412000000      -1.23918725E-13
  0.412999988      -9.44360421E-14
  0.414000005      -5.65425324E-14
  0.414999992      -1.17082840E-14
  0.416000009       3.81146056E-14
  0.416999996       9.05600126E-14
  0.418000013       1.42941472E-13
  0.419000000       1.92368528E-13
  0.419999987       2.35881193E-13
  0.421000004       2.70597130E-13
  0.421999991       2.93864705E-13
  0.423000008       3.03414737E-13
  0.423999995       2.97503396E-13
  0.425000012       2.75038401E-13
  0.425999999       2.35681104E-13
  0.426999986       1.79918092E-13
  0.428000003       1.09096732E-13
  0.428999990       2.54205091E-14
  0.430000007      -6.80980608E-14
  0.430999994      -1.67727242E-13
  0.432000011      -2.69147036E-13
  0.432999998      -3.67617449E-13
  0.433999985      -4.58177983E-13
  0.435000002      -5.35871098E-13
  0.435999990      -5.95979700E-13
  0.437000006      -6.34268679E-13
  0.437999994      -6.47218715E-13
  0.439000010      -6.32240950E-13
  0.439999998      -5.87860761E-13
  0.441000015      -5.13860439E-13
  0.442000002      -4.11371675E-13
  0.442999989      -2.82909926E-13
  0.444000006      -1.32346120E-13
  0.444999993       3.51863449E-14
  0.446000010       2.13449213E-13
  0.446999997       3.95317459E-13
  0.448000014       5.73050938E-13
  0.449000001       7.38610182E-13
  0.449999988       8.84003808E-13
  0.451000005       1.00165330E-12
  0.451999992       1.08475891E-12
  0.453000009       1.12765006E-12
  0.453999996       1.12610312E-12
  0.455000013       1.07761044E-12
  0.456000000       9.81585473E-13
  0.456999987       8.39491454E-13
  0.458000004       6.54884133E-13
  0.458999991       4.33361951E-13
  0.460000008       1.82421894E-13
  0.460999995      -8.87772115E-14
  0.462000012      -3.69737579E-13
  0.463000000      -6.49020822E-13
  0.463999987      -9.14707221E-13
  0.465000004      -1.15489779E-12
  0.465999991      -1.35823850E-12
  0.467000008      -1.51444395E-12
  0.467999995      -1.61479640E-12
  0.469000012      -1.65259744E-12
  0.469999999      -1.62354884E-12
  0.470999986      -1.52604383E-12
  0.472000003      -1.36135027E-12
  0.472999990      -1.13367486E-12
  0.474000007      -8.50099396E-13
  0.474999994      -5.20387390E-13
  0.476000011      -1.56664869E-13
  0.476999998       2.27015875E-13
  0.477999985       6.15213934E-13
  0.479000002       9.91718968E-13
  0.479999989       1.34022687E-12
  0.481000006       1.64504445E-12
  0.481999993       1.89179206E-12
  0.483000010       2.06807336E-12
  0.483999997       2.16408055E-12
  0.485000014       2.17310696E-12
  0.486000001       2.09194034E-12
  0.486999989       1.92111539E-12
  0.488000005       1.66501014E-12
  0.488999993       1.33177649E-12
  0.490000010       9.33103638E-13
  0.490999997       4.83818768E-13
  0.492000014       1.33828495E-15
  0.493000001      -4.95010283E-13
  0.493999988      -9.84769449E-13
  0.495000005      -1.44720466E-12
  0.495999992      -1.86219291E-12
  0.497000009      -2.21110847E-12
  0.497999996      -2.47766586E-12
  0.499000013      -2.64868292E-12
  0.500000000      -2.71472688E-12
  0.500999987      -2.67061200E-12
  0.501999974      -2.51572352E-12
  0.503000021      -2.25414869E-12
  0.504000008      -1.89460448E-12
  0.504999995      -1.45016150E-12
  0.505999982      -9.37770044E-13
  0.507000029      -3.77605933E-13
  0.508000016       2.07738503E-13
  0.509000003       7.94186440E-13
  0.509999990       1.35719214E-12
  0.510999978       1.87279706E-12
  0.512000024       2.31867997E-12
  0.513000011       2.67515372E-12
  0.513999999       2.92606434E-12
  0.514999986       3.05955044E-12
  0.515999973       3.06862478E-12
  0.517000020       2.95155155E-12
  0.518000007       2.71199708E-12
  0.518999994       2.35894377E-12
  0.519999981       1.90636786E-12
  0.521000028       1.37269157E-12
  0.522000015       7.80029470E-13
  0.523000002       1.53261654E-13
  0.523999989      -4.81028899E-13
  0.524999976      -1.09570794E-12
  0.526000023      -1.66428058E-12
  0.527000010      -2.16206718E-12
  0.527999997      -2.56731268E-12
  0.528999984      -2.86217664E-12
  0.529999971      -3.03355930E-12
  0.531000018      -3.07372422E-12
  0.532000005      -2.98068536E-12
  0.532999992      -2.75834021E-12
  0.533999979      -2.41633948E-12
  0.535000026      -1.96969589E-12
  0.536000013      -1.43814734E-12
  0.537000000      -8.45301531E-13
  0.537999988      -2.17597912E-13
  0.538999975       4.16867468E-13
  0.540000021       1.02960110E-12
  0.541000009       1.59299863E-12
  0.541999996       2.08160095E-12
  0.542999983       2.47326118E-12
  0.544000030       2.75016858E-12
  0.545000017       2.89968050E-12
  0.546000004       2.91492416E-12
  0.546999991       2.79513673E-12
  0.547999978       2.54572687E-12
  0.549000025       2.17805374E-12
  0.550000012       1.70892944E-12
  0.550999999       1.15986745E-12
  0.551999986       5.56110171E-13
  0.552999973      -7.45214979E-14
  0.554000020      -7.02904423E-13
  0.555000007      -1.29995613E-12
  0.555999994      -1.83798246E-12
  0.556999981      -2.29196805E-12
  0.558000028      -2.64074700E-12
  0.559000015      -2.86800076E-12
  0.560000002      -2.96303346E-12
  0.560999990      -2.92128821E-12
  0.561999977      -2.74457822E-12
  0.563000023      -2.44101961E-12
  0.564000010      -2.02466863E-12
  0.564999998      -1.51487742E-12
  0.565999985      -9.35398568E-13
  0.566999972      -3.13277345E-13
  0.568000019       3.22415516E-13
  0.569000006       9.41952245E-13
  0.569999993       1.51635280E-12
  0.570999980       2.01876059E-12
  0.572000027       2.42572195E-12
  0.573000014       2.71830995E-12
  0.574000001       2.88303669E-12
  0.574999988       2.91250964E-12
  0.575999975       2.80580051E-12
  0.577000022       2.56850487E-12
  0.578000009       2.21249104E-12
  0.578999996       1.75534554E-12
  0.579999983       1.21954139E-12
  0.580999970       6.31367408E-13
  0.582000017       1.96684574E-14
  0.583000004      -5.85544308E-13
  0.583999991      -1.15454716E-12
  0.584999979      -1.65935104E-12
  0.586000025      -2.07507340E-12
  0.587000012      -2.38116753E-12
  0.588000000      -2.56244830E-12
  0.588999987      -2.60986415E-12
  0.589999974      -2.52097562E-12
  0.591000021      -2.30011431E-12
  0.592000008      -1.95821311E-12
  0.592999995      -1.51231219E-12
  0.593999982      -9.84763269E-13
  0.595000029      -4.02165660E-13
  0.596000016       2.05913628E-13
  0.597000003       8.08377779E-13
  0.597999990       1.37412651E-12
  0.598999977       1.87359785E-12
  0.600000024       2.28025107E-12
  0.601000011       2.57191664E-12
  0.601999998       2.73194705E-12
  0.602999985       2.75010982E-12
  0.603999972       2.62317685E-12
  0.605000019       2.35517725E-12
  0.606000006       1.95729674E-12
  0.606999993       1.44742443E-12
  0.607999980       8.49365771E-13
  0.609000027       1.91753324E-13
  0.610000014      -4.93295346E-13
  0.611000001      -1.17171030E-12
  0.611999989      -1.80912100E-12
  0.612999976      -2.37254964E-12
  0.614000022      -2.83206531E-12
  0.615000010      -3.16231546E-12
  0.615999997      -3.34386230E-12
  0.616999984      -3.36425506E-12
  0.617999971      -3.21878136E-12
  0.619000018      -2.91085732E-12
  0.620000005      -2.45203163E-12
  0.620999992      -1.86159573E-12
  0.621999979      -1.16581224E-12
  0.623000026      -3.96792272E-13
  0.624000013       4.08932680E-13
  0.625000000       1.21207992E-12
  0.625999987       1.97245280E-12
  0.626999974       2.65086130E-12
  0.628000021       3.21103669E-12
  0.629000008       3.62145036E-12
  0.629999995       3.85694818E-12
  0.630999982       3.90012198E-12
  0.632000029       3.74234541E-12
  0.633000016       3.38442295E-12
  0.634000003       2.83681151E-12
  0.634999990       2.11939580E-12
  0.635999978       1.26081892E-12
  0.637000024       2.97391235E-13
  0.638000011      -7.28383337E-13
  0.638999999      -1.76960118E-12
  0.639999986      -2.77699977E-12
  0.640999973      -3.70115527E-12
  0.642000020      -4.49474269E-12
  0.643000007      -5.11475454E-12
  0.643999994      -5.52457819E-12
  0.644999981      -5.69583703E-12
  0.646000028      -5.60990447E-12
  0.647000015      -5.25901891E-12
  0.648000002      -4.64694125E-12
  0.648999989      -3.78911659E-12
  0.649999976      -2.71232364E-12
  0.651000023      -1.45381602E-12
  0.652000010      -5.99845694E-14
  0.652999997       1.41540924E-12
  0.653999984       2.91336096E-12
  0.654999971       4.37202444E-12
  0.656000018       5.72928684E-12
  0.657000005       6.92541120E-12
  0.657999992       7.90563101E-12
  0.658999979       8.62258268E-12
  0.660000026       9.03847396E-12
  0.661000013       9.12688588E-12
  0.662000000       8.87412539E-12
  0.662999988       8.28006760E-12
  0.663999975       7.35844025E-12
  0.665000021       6.13653052E-12
  0.666000009       4.65431946E-12
  0.666999996       2.96307185E-12
  0.667999983       1.12343088E-12
  0.669000030      -7.96905727E-13
  0.670000017      -2.72583692E-12
  0.671000004      -4.58973181E-12
  0.671999991      -6.31640400E-12
  0.672999978      -7.83806960E-12
  0.674000025      -9.09416032E-12
  0.675000012      -1.00338756E-11
  0.675999999      -1.06183647E-11
  0.676999986      -1.08224410E-11
  0.677999973      -1.06357562E-11
  0.679000020      -1.00633789E-11
  0.680000007      -9.12575050E-12
  0.680999994      -7.85800591E-12
  0.681999981      -6.30869185E-12
  0.683000028      -4.53792212E-12
  0.684000015      -2.61504490E-12
  0.685000002      -6.15910534E-13
  0.685999990       1.38014762E-12
  0.686999977       3.29350089E-12
  0.688000023       5.04745030E-12
  0.689000010       6.57135891E-12
  0.689999998       7.80355988E-12
  0.690999985       8.69392405E-12
  0.691999972       9.20597192E-12
  0.693000019       9.31845139E-12
  0.694000006       9.02630401E-12
  0.694999993       8.34097982E-12
  0.695999980       7.29008347E-12
  0.697000027       5.91636115E-12
  0.698000014       4.27606952E-12
  0.699000001       2.43678016E-12
  0.699999988       4.74712609E-13
  0.700999975      -1.52829875E-12
  0.702000022      -3.48808699E-12
  0.703000009      -5.32154876E-12
  0.703999996      -6.95001825E-12
  0.704999983      -8.30248283E-12
  0.705999970      -9.31850951E-12
  0.707000017      -9.95075897E-12
  0.708000004      -1.01669853E-11
  0.708999991      -9.95144071E-12
  0.709999979      -9.30562138E-12
  0.711000025      -8.24832216E-12
  0.712000012      -6.81499345E-12
  0.713000000      -5.05642620E-12
  0.713999987      -3.03681342E-12
  0.714999974      -8.31262034E-13
  0.716000021       1.47714469E-12
  0.717000008       3.80061824E-12
  0.717999995       6.05013825E-12
  0.718999982       8.13898862E-12
  0.720000029       9.98621671E-12
  0.721000016       1.15198693E-11
  0.722000003       1.26798823E-11
  0.722999990       1.34204982E-11
  0.723999977       1.37121165E-11
  0.725000024       1.35425022E-11
  0.726000011       1.29172974E-11
  0.726999998       1.18598169E-11
  0.727999985       1.04101311E-11
  0.728999972       8.62347693E-12
  0.730000019       6.56805339E-12
  0.731000006       4.32229556E-12
  0.731999993       1.97173744E-12
  0.732999980      -3.94415945E-13
  0.734000027      -2.68686202E-12
  0.735000014      -4.81977392E-12
  0.736000001      -6.71423073E-12
  0.736999989      -8.30135960E-12
  0.737999976      -9.52506823E-12
  0.739000022      -1.03442446E-11
  0.740000010      -1.07343405E-11
  0.740999997      -1.06882714E-11
  0.741999984      -1.02165967E-11
  0.742999971      -9.34696764E-12
  0.744000018      -8.12286956E-12
  0.745000005      -6.60170963E-12
  0.745999992      -4.85232991E-12
  0.746999979      -2.95204898E-12
  0.748000026      -9.83355216E-13
  0.749000013       9.69608725E-13
  0.750000000       2.82462270E-12
  0.750999987       4.50487434E-12
  0.751999974       5.94220853E-12
  0.753000021       7.07999891E-12
  0.754000008       7.87552315E-12
  0.754999995       8.30173690E-12
  0.755999982       8.34836887E-12
  0.757000029       8.02229203E-12
  0.758000016       7.34715153E-12
  0.759000003       6.36226358E-12
  0.759999990       5.12082824E-12
  0.760999978       3.68753552E-12
  0.762000024       2.13566274E-12
  0.763000011       5.43790327E-13
  0.763999999      -1.00772667E-12
  0.764999986      -2.44037603E-12
  0.765999973      -3.68103985E-12
  0.767000020      -4.66532108E-12
  0.768000007      -5.34050538E-12
  0.768999994      -5.66801770E-12
  0.769999981      -5.62527195E-12
  0.771000028      -5.20681978E-12
  0.772000015      -4.42475050E-12
  0.773000002      -3.30831695E-12
  0.773999989      -1.90279411E-12
  0.774999976      -2.67618501E-13
  0.776000023       1.52611897E-12
  0.777000010       3.39871837E-12
  0.777999997       5.26532897E-12
  0.778999984       7.03967050E-12
  0.779999971       8.63785866E-12
  0.781000018       9.98216180E-12
  0.782000005       1.10045306E-11
  0.782999992       1.16497437E-11
  0.783999979       1.18780168E-11
  0.785000026       1.16669677E-11
  0.786000013       1.10128382E-11
  0.787000000       9.93090939E-12
  0.787999988       8.45509079E-12
  0.788999975       6.63668339E-12
  0.790000021       4.54236518E-12
  0.791000009       2.25148654E-12
  0.791999996      -1.47225765E-13
  0.792999983      -2.55941796E-12
  0.794000030      -4.88914378E-12
  0.795000017      -7.04301591E-12
  0.796000004      -8.93430122E-12
  0.796999991      -1.04867720E-11
  0.797999978      -1.16381427E-11
  0.799000025      -1.23429374E-11
  0.800000012      -1.25746670E-11
  0.800999999      -1.23272026E-11
  0.801999986      -1.16152817E-11
  0.802999973      -1.04741025E-11
  0.804000020      -8.95803483E-12
  0.805000007      -7.13847818E-12
  0.805999994      -5.10095091E-12
  0.806999981      -2.94153417E-12
  0.808000028      -7.62810496E-13
  0.809000015       1.33053236E-12
  0.810000002       3.23623984E-12
  0.810999990       4.85898474E-12
  0.811999977       6.11461966E-12
  0.813000023       6.93400502E-12
  0.814000010       7.26623969E-12
  0.814999998       7.08114210E-12
  0.815999985       6.37088472E-12
  0.816999972       5.15069107E-12
  0.818000019       3.45854855E-12
  0.819000006       1.35394734E-12
  0.819999993      -1.08430918E-12
  0.820999980      -3.76114678E-12
  0.822000027      -6.56899752E-12
  0.823000014      -9.39215199E-12
  0.824000001      -1.21115071E-11
  0.824999988      -1.46095237E-11
  0.825999975      -1.67751802E-11
  0.827000022      -1.85087119E-11
  0.828000009      -1.97259414E-11
  0.828999996      -2.03620072E-11
  0.829999983      -2.03743342E-11
  0.830999970      -1.97447163E-11
  0.832000017      -1.84804099E-11
  0.833000004      -1.66141961E-11
  0.833999991      -1.42033937E-11
  0.834999979      -1.13278475E-11
  0.836000025      -8.08698941E-12
  0.837000012      -4.59607005E-12
  0.838000000      -9.81715143E-13
  0.838999987       2.62300945E-12
  0.839999974       6.08382181E-12
  0.841000021       9.27053052E-12
  0.842000008       1.20622071E-11
  0.842999995       1.43520083E-11
  0.843999982       1.60514432E-11
  0.845000029       1.70939218E-11
  0.846000016       1.74374265E-11
  0.847000003       1.70662026E-11
  0.847999990       1.59913922E-11
  0.848999977       1.42505903E-11
  0.850000024       1.19063396E-11
  0.851000011       9.04361568E-12
  0.851999998       5.76641209E-12
  0.852999985       2.19357583E-12
  0.853999972      -1.54596540E-12
  0.855000019      -5.31835556E-12
  0.856000006      -8.99013936E-12