   0.00000000       0.00000000    
   1.00000005E-03   0.00000000    
   2.00000009E-03   0.00000000    
   3.00000003E-03   0.00000000    
   4.00000019E-03   0.00000000    
   4.99999989E-03   0.00000000    
   6.00000005E-03   0.00000000    
   7.00000022E-03   0.00000000    
   8.00000038E-03   0.00000000    
   8.99999961E-03   0.00000000    
   9.99999978E-03   0.00000000    
   1.09999999E-02   0.00000000    
   1.20000001E-02   0.00000000    
   1.30000003E-02   4.79668836E-38
   1.40000004E-02   4.64581964E-37
   1.49999997E-02   1.88700582E-36
   1.60000008E-02   1.00091249E-35
   1.70000009E-02   3.63057600E-35
   1.79999992E-02   1.08403905E-34
   1.89999994E-02   2.94854483E-34
   1.99999996E-02   7.43538564E-34
   2.09999997E-02   1.76448131E-33
   2.19999999E-02   3.98328420E-33
   2.30000000E-02   8.58525238E-33
   2.40000002E-02   1.76948311E-32
   2.50000004E-02   3.49423219E-32
   2.60000005E-02   6.63007496E-32
   2.70000007E-02   1.21235221E-31
   2.80000009E-02   2.14064386E-31
   2.89999992E-02   3.65517100E-31
   2.99999993E-02   6.04283936E-31
   3.09999995E-02   9.68125769E-31
   3.20000015E-02   1.50408960E-30
   3.29999998E-02   2.26703809E-30
   3.40000018E-02   3.31555987E-30
   3.50000001E-02   4.70443597E-30
   3.59999985E-02   6.47290309E-30
   3.70000005E-02   8.62849717E-30
   3.79999988E-02   1.11272897E-29
   3.90000008E-02   1.38528093E-29
   3.99999991E-02   1.65979170E-29
   4.10000011E-02   1.90562884E-29
   4.19999994E-02   2.08324652E-29
   4.30000015E-02   2.14811560E-29
   4.39999998E-02   2.05865420E-29
   4.50000018E-02   1.78895284E-29
   4.60000001E-02   1.34635714E-29
   4.69999984E-02   7.92608720E-30
   4.80000004E-02   2.65136099E-30
   4.89999987E-02  -7.99286082E-32
   5.00000007E-02   2.90158518E-30
   5.09999990E-02   1.53181366E-29
   5.20000011E-02   4.05899606E-29
   5.29999994E-02   8.02131285E-29
   5.40000014E-02   1.31091347E-28
   5.49999997E-02   1.81540961E-28
   5.60000017E-02   2.05733398E-28
   5.70000000E-02   1.56459419E-28
   5.79999983E-02  -4.36882041E-29
   5.90000004E-02  -5.12291010E-28
   5.99999987E-02  -1.41735492E-27
   6.10000007E-02  -2.98635660E-27
   6.19999990E-02  -5.51188285E-27
   6.30000010E-02  -9.35086366E-27
   6.40000030E-02  -1.49135664E-26
   6.49999976E-02  -2.26378027E-26
   6.59999996E-02  -3.29432844E-26
   6.70000017E-02  -4.61609971E-26
   6.80000037E-02  -6.24330528E-26
   6.89999983E-02  -8.15799149E-26
   7.00000003E-02  -1.02934454E-25
   7.10000023E-02  -1.25146262E-25
   7.19999969E-02  -1.45965016E-25
   7.29999989E-02  -1.62018619E-25
   7.40000010E-02  -1.68610045E-25
   7.50000030E-02  -1.59566223E-25
   7.59999976E-02  -1.27181585E-25
   7.69999996E-02  -6.23082772E-26
   7.80000016E-02   4.53481714E-26
   7.90000036E-02   2.06665262E-25
   7.99999982E-02   4.32211368E-25
   8.10000002E-02   7.30973158E-25
   8.20000023E-02   1.10867044E-24
   8.29999968E-02   1.56565470E-24
   8.39999989E-02   2.09443004E-24
   8.50000009E-02   2.67689259E-24
   8.60000029E-02   3.28144877E-24
   8.69999975E-02   3.86025376E-24
   8.79999995E-02   4.34689456E-24
   8.90000015E-02   4.65492266E-24
   9.00000036E-02   4.67772429E-24
   9.09999982E-02   4.29026579E-24
   9.20000002E-02   3.35327968E-24
   9.30000022E-02   1.72043799E-24
   9.39999968E-02  -7.51017473E-25
   9.49999988E-02  -4.18587898E-24
   9.60000008E-02  -8.67272259E-24
   9.70000029E-02  -1.42420538E-23
   9.79999974E-02  -2.08414984E-23
   9.89999995E-02  -2.83092202E-23
  0.100000001      -3.63472805E-23
  0.101000004      -4.44972645E-23
  0.101999998      -5.21211286E-23
  0.103000000      -5.83907332E-23
  0.104000002      -6.22899338E-23
  0.104999997      -6.26333597E-23
  0.105999999      -5.81058913E-23
  0.107000001      -4.73264289E-23
  0.108000003      -2.89386397E-23
  0.108999997      -1.73001456E-24
  0.109999999       3.52213867E-23
  0.111000001       8.23756704E-23
  0.112000003       1.39541378E-22
  0.112999998       2.05676776E-22
  0.114000000       2.78695394E-22
  0.115000002       3.55292476E-22
  0.115999997       4.30812869E-22
  0.116999999       4.99182850E-22
  0.118000001       5.52931263E-22
  0.119000003       5.83324698E-22
  0.119999997       5.80640400E-22
  0.120999999       5.34596823E-22
  0.122000001       4.34954932E-22
  0.123000003       2.72294337E-22
  0.123999998       3.89566399E-23
  0.125000000      -2.69867574E-22
  0.126000002      -6.54947463E-22
  0.127000004      -1.11177588E-21
  0.128000006      -1.62936688E-21
  0.128999993      -2.18918357E-21
  0.129999995      -2.76431078E-21
  0.130999997      -3.31899920E-21
  0.131999999      -3.80871476E-21
  0.133000001      -4.18082325E-21
  0.134000003      -4.37603545E-21
  0.135000005      -4.33070733E-21
  0.136000007      -3.98006070E-21
  0.136999995      -3.26233753E-21
  0.137999997      -2.12384135E-21
  0.138999999      -5.24744822E-22
  0.140000001       1.55454409E-21
  0.141000003       4.10674979E-21
  0.142000005       7.09121744E-21
  0.143000007       1.04279921E-20
  0.143999994       1.39930396E-20
  0.144999996       1.76152053E-20
  0.145999998       2.10755377E-20
  0.147000000       2.41096087E-20
  0.148000002       2.64133778E-20
  0.149000004       2.76530712E-20
  0.150000006       2.74793794E-20
  0.150999993       2.55460660E-20
  0.151999995       2.15328006E-20
  0.152999997       1.51717364E-20
  0.153999999       6.27695830E-21
  0.155000001      -5.22439116E-21
  0.156000003      -1.92609458E-20
  0.157000005      -3.55878658E-20
  0.158000007      -5.37617703E-20
  0.158999994      -7.31223849E-20
  0.159999996      -9.27835245E-20
  0.160999998      -1.11636011E-19
  0.162000000      -1.28364938E-19
  0.163000003      -1.41483389E-19
  0.164000005      -1.49383985E-19
  0.165000007      -1.50408939E-19
  0.165999994      -1.42938244E-19
  0.166999996      -1.25494466E-19
  0.167999998      -9.68613117E-20
  0.169000000      -5.62115691E-20
  0.170000002      -3.23875783E-21
  0.171000004       6.17146724E-20
  0.172000006       1.37540917E-19
  0.172999993       2.22271418E-19
  0.173999995       3.13012485E-19
  0.174999997       4.05921722E-19
  0.175999999       4.96234852E-19
  0.177000001       5.78351191E-19
  0.178000003       6.45984373E-19
  0.179000005       6.92382071E-19
  0.180000007       7.10615355E-19
  0.180999994       6.93934327E-19
  0.181999996       6.36182334E-19
  0.182999998       5.32255983E-19
  0.184000000       3.78593329E-19
  0.185000002       1.73667965E-19
  0.186000004      -8.15382174E-20
  0.187000006      -3.83113715E-19
  0.187999994      -7.23880953E-19
  0.188999996      -1.09317894E-18
  0.189999998      -1.47679781E-18
  0.191000000      -1.85709740E-18
  0.192000002      -2.21333514E-18
  0.193000004      -2.52222175E-18
  0.194000006      -2.75871434E-18
  0.194999993      -2.89704603E-18
  0.195999995      -2.91197395E-18
  0.196999997      -2.78021752E-18
  0.197999999      -2.48203980E-18
  0.199000001      -2.00291135E-18
  0.200000003      -1.33517994E-18
  0.201000005      -4.79657635E-19
  0.202000007       5.52973755E-19
  0.202999994       1.74104500E-18
  0.203999996       3.05117480E-18
  0.204999998       4.43804153E-18
  0.206000000       5.84474406E-18
  0.207000002       7.20382745E-18
  0.208000004       8.43902317E-18
  0.209000006       9.46772897E-18
  0.209999993       1.02042134E-17
  0.210999995       1.05634869E-17
  0.211999997       1.04657513E-17
  0.213000000       9.84127380E-18
  0.214000002       8.63550172E-18
  0.215000004       6.81419477E-18
  0.216000006       4.36830980E-18
  0.216999993       1.31834609E-18
  0.217999995      -2.28215078E-18
  0.218999997      -6.34422549E-18
  0.219999999      -1.07425863E-17
  0.221000001      -1.53163674E-17
  0.222000003      -1.98717850E-17
  0.223000005      -2.41868372E-17
  0.224000007      -2.80180930E-17
  0.224999994      -3.11095283E-17
  0.225999996      -3.32032482E-17
  0.226999998      -3.40518362E-17
  0.228000000      -3.34319371E-17
  0.229000002      -3.11585570E-17
  0.230000004      -2.70994659E-17
  0.231000006      -2.11890122E-17
  0.231999993      -1.34405914E-17
  0.232999995      -3.95694130E-18
  0.233999997       7.06251274E-18
  0.234999999       1.93180157E-17
  0.236000001       3.24102334E-17
  0.237000003       4.58459097E-17
  0.238000005       5.90488240E-17
  0.238999993       7.13761710E-17
  0.239999995       8.21402921E-17
  0.240999997       9.06353576E-17
  0.241999999       9.61683820E-17
  0.243000001       9.80935489E-17
  0.244000003       9.58486866E-17
  0.245000005       8.89923255E-17
  0.246000007       7.72397036E-17
  0.246999994       6.04957747E-17
  0.247999996       3.88833287E-17
  0.248999998       1.27643398E-17
  0.250000000      -1.72474321E-17
  0.250999987      -5.02841308E-17
  0.252000004      -8.52331271E-17
  0.252999991      -1.20758920E-16
  0.254000008      -1.55338074E-16
  0.254999995      -1.87307029E-16
  0.256000012      -2.14922024E-16
  0.256999999      -2.36429713E-16
  0.257999986      -2.50146405E-16
  0.259000003      -2.54543036E-16
  0.259999990      -2.48332802E-16
  0.261000007      -2.30557365E-16
  0.261999995      -2.00667664E-16
  0.263000011      -1.58594902E-16
  0.263999999      -1.04807264E-16
  0.264999986      -4.03482225E-17
  0.266000003       3.31472811E-17
  0.266999990       1.13461943E-16
  0.268000007       1.97832790E-16
  0.268999994       2.83016683E-16
  0.270000011       3.65384655E-16
  0.270999998       4.41043571E-16
  0.272000015       5.05982596E-16
  0.273000002       5.56240448E-16
  0.273999989       5.88087087E-16
  0.275000006       5.98214054E-16
  0.275999993       5.83925085E-16
  0.277000010       5.43318061E-16
  0.277999997       4.75449758E-16
  0.279000014       3.80473939E-16
  0.280000001       2.59743447E-16
  0.280999988       1.15869051E-16
  0.282000005      -4.72725978E-17
  0.282999992      -2.24586895E-16
  0.284000009      -4.09868020E-16
  0.284999996      -5.95965605E-16
  0.286000013      -7.75009418E-16
  0.287000000      -9.38686994E-16
  0.287999988      -1.07856718E-15
  0.289000005      -1.18645853E-15
  0.289999992      -1.25479058E-15
  0.291000009      -1.27700233E-15
  0.291999996      -1.24792115E-15
  0.293000013      -1.16411433E-15
  0.294000000      -1.02419539E-15
  0.294999987      -8.29067114E-16
  0.296000004      -5.82084853E-16
  0.296999991      -2.89126173E-16
  0.298000008       4.14451104E-17
  0.298999995       3.98927345E-16
  0.300000012       7.70545078E-16
  0.300999999       1.14182731E-15
  0.301999986       1.49709177E-15
  0.303000003       1.82002456E-15
  0.303999990       2.09433470E-15
  0.305000007       2.30446240E-15
  0.305999994       2.43631451E-15
  0.307000011       2.47799531E-15
  0.307999998       2.42050041E-15
  0.308999985       2.25834061E-15
  0.310000002       1.99006092E-15
  0.310999990       1.61862533E-15
  0.312000006       1.15163764E-15
  0.312999994       6.01376770E-16
  0.314000010      -1.53701540E-17
  0.314999998      -6.77685121E-16
  0.316000015      -1.36110698E-15
  0.317000002      -2.03841994E-15
  0.317999989      -2.68062274E-15
  0.319000006      -3.25805061E-15
  0.319999993      -3.74161134E-15
  0.321000010      -4.10408893E-15
  0.321999997      -4.32146384E-15
  0.323000014      -4.37419164E-15
  0.324000001      -4.24837972E-15
  0.324999988      -3.93680416E-15
  0.326000005      -3.43970911E-15
  0.326999992      -2.76533557E-15
  0.328000009      -1.93013885E-15
  0.328999996      -9.58662149E-16
  0.330000013       1.16956668E-16
  0.331000000       1.25784573E-15
  0.331999987       2.41961844E-15
  0.333000004       3.55392197E-15
  0.333999991       4.61027243E-15
  0.335000008       5.53811105E-15
  0.335999995       6.28901423E-15
  0.337000012       6.81896124E-15
  0.338000000       7.09057082E-15
  0.338999987       7.07520014E-15
  0.340000004       6.75480739E-15
  0.340999991       6.12347646E-15
  0.342000008       5.18851048E-15
  0.342999995       3.97102005E-15
  0.344000012       2.50594274E-15
  0.344999999       8.41448883E-16
  0.345999986      -9.62276968E-16
  0.347000003      -2.83487104E-15
  0.347999990      -4.69820461E-15
  0.349000007      -6.46930816E-15
  0.349999994      -8.06371469E-15
  0.351000011      -9.39909856E-15
  0.351999998      -1.03990735E-14
  0.352999985      -1.09969898E-14
  0.354000002      -1.11395615E-14
  0.354999989      -1.07901537E-14
  0.356000006      -9.93155787E-15
  0.356999993      -8.56809825E-15
  0.358000010      -6.72692772E-15
  0.358999997      -4.45840154E-15
  0.360000014      -1.83545009E-15
  0.361000001       1.04809570E-15
  0.361999989       4.08021996E-15
  0.363000005       7.13443231E-15
  0.363999993       1.00743795E-14
  0.365000010       1.27592105E-14
  0.365999997       1.50495156E-14
  0.367000014       1.68136192E-14
  0.368000001       1.79339575E-14
  0.368999988       1.83132928E-14
  0.370000005       1.78804522E-14
  0.370999992       1.65953168E-14
  0.372000009       1.44527995E-14
  0.372999996       1.14855533E-14
  0.374000013       7.76520588E-15
  0.375000000       3.40197231E-15
  0.375999987      -1.45744745E-15
  0.377000004      -6.63372064E-15
  0.377999991      -1.19204268E-14
  0.379000008      -1.70911648E-14
  0.379999995      -2.19080328E-14
  0.381000012      -2.61311900E-14
  0.381999999      -2.95291576E-14
  0.382999986      -3.18894725E-14
  0.384000003      -3.30292468E-14
  0.384999990      -3.28051727E-14
  0.386000007      -3.11224943E-14
  0.386999995      -2.79425039E-14
  0.388000011      -2.32881375E-14
  0.388999999      -1.72472883E-14
  0.389999986      -9.97356477E-15
  0.391000003      -1.68429071E-15
  0.391999990       7.34436095E-15
  0.393000007       1.67850607E-14
  0.393999994       2.62697087E-14
  0.395000011       3.54022333E-14
  0.395999998       4.37734227E-14
  0.397000015       5.09772685E-14
  0.398000002       5.66282420E-14
  0.398999989       6.03788192E-14
  0.400000006       6.19365331E-14
  0.400999993       6.10797762E-14
  0.402000010       5.76716477E-14
  0.402999997       5.16711274E-14
  0.404000014       4.31409194E-14
  0.405000001       3.22514639E-14
  0.405999988       1.92807128E-14
  0.407000005       4.60940930E-15
  0.407999992      -1.12881735E-14
  0.409000009      -2.78579175E-14
  0.409999996      -4.44836632E-14
  0.411000013      -6.05086253E-14
  0.412000000      -7.52597176E-14
  0.412999988      -8.80739166E-14
  0.414000005      -9.83257665E-14
  0.414999992      -1.05454857E-13
  0.416000009      -1.08992154E-13
  0.416999996      -1.08584047E-13
  0.418000013      -1.04012990E-13
  0.419000000      -9.52136997E-14
  0.419999987      -8.22839789E-14
  0.421000004      -6.54894907E-14
  0.421999991      -4.52619441E-14
  0.423000008      -2.21904235E-14
  0.423999995       2.99409037E-15
  0.425000012       2.94407172E-14
  0.425999999       5.62066330E-14
  0.426999986       8.22900843E-14
  0.428000003       1.06667327E-13
  0.428999990       1.28332254E-13
  0.430000007       1.46337017E-13
  0.430999994       1.59832258E-13
  0.432000011       1.68105059E-13
  0.432999998       1.70613090E-13
  0.433999985       1.67013335E-13
  0.435000002       1.57183958E-13
  0.435999990       1.41238217E-13
  0.437000006       1.19529386E-13
  0.437999994       9.26462208E-14
  0.439000010       6.13987621E-14
  0.439999998       2.67946574E-14
  0.441000015      -9.99341499E-15
  0.442000002      -4.76681615E-14
  0.442999989      -8.48545884E-14
  0.444000006      -1.20151691E-13
  0.444999993      -1.52187006E-13
  0.446000010      -1.79671843E-13
  0.446999997      -2.01454914E-13
  0.448000014      -2.16572108E-13
  0.449000001      -2.24290218E-13
  0.449999988      -2.24142658E-13
  0.451000005      -2.15955346E-13
  0.451999992      -1.99861341E-13
  0.453000009      -1.76303471E-13
  0.453999996      -1.46024252E-13
  0.455000013      -1.10043288E-13
  0.456000000      -6.96226659E-14
  0.456999987      -2.62215227E-14
  0.458000004       1.85586664E-14
  0.458999991       6.30360022E-14
  0.460000008       1.05514826E-13
  0.460999995       1.44354458E-13
  0.462000012       1.78037218E-13
  0.463000000       2.05232641E-13
  0.463999987       2.24855277E-13
  0.465000004       2.36113321E-13
  0.465999991       2.38545728E-13
  0.467000008       2.32046072E-13
  0.467999995       2.16871822E-13
  0.469000012       1.93638223E-13
  0.469999999       1.63296717E-13
  0.470999986       1.27098608E-13
  0.472000003       8.65451238E-14
  0.472999990       4.33258640E-14
  0.474000007      -7.51938252E-16
  0.474999994      -4.38404433E-14
  0.476000011      -8.41312019E-14
  0.476999998      -1.19934675E-13
  0.477999985      -1.49755710E-13
  0.479000002      -1.72361569E-13
  0.479999989      -1.86839286E-13
  0.481000006      -1.92639578E-13
  0.481999993      -1.89605073E-13
  0.483000010      -1.77981328E-13
  0.483999997      -1.58409717E-13
  0.485000014      -1.31902166E-13
  0.486000001      -9.97986212E-14
  0.486999989      -6.37087158E-14
  0.488000005      -2.54400535E-14
  0.488999993       1.30838571E-14
  0.490000010       4.99124938E-14
  0.490999997       8.31601091E-14
  0.492000014       1.11096211E-13
  0.493000001       1.32230462E-13
  0.493999988       1.45388055E-13
  0.495000005       1.49771837E-13
  0.495999992       1.45007975E-13
  0.497000009       1.31172579E-13
  0.497999996       1.08797872E-13
  0.499000013       7.88568971E-14
  0.500000000       4.27271303E-14
  0.500999987       2.13409782E-15
  0.501999974      -4.09227502E-14
  0.503000021      -8.42588938E-14
  0.504000008      -1.25604591E-13
  0.504999995      -1.62711248E-13
  0.505999982      -1.93459574E-13
  0.507000029      -2.15964440E-13
  0.508000016      -2.28671574E-13
  0.509000003      -2.30441371E-13
  0.509999990      -2.20615477E-13
  0.510999978      -1.99062826E-13
  0.512000024      -1.66202311E-13
  0.513000011      -1.23000568E-13
  0.513999999      -7.09442948E-14
  0.514999986      -1.19879319E-14
  0.515999973       5.15217684E-14
  0.517000020       1.16941098E-13
  0.518000007       1.81440800E-13
  0.518999994       2.42129016E-13
  0.519999981       2.96179964E-13
  0.521000028       3.40962989E-13
  0.522000015       3.74165895E-13
  0.523000002       3.93906723E-13
  0.523999989       3.98828811E-13
  0.524999976       3.88174329E-13
  0.526000023       3.61832499E-13
  0.527000010       3.20359841E-13
  0.527999997       2.64970907E-13
  0.528999984       1.97499609E-13
  0.529999971       1.20332008E-13
  0.531000018       3.63134442E-14
  0.532000005      -5.13664666E-14
  0.532999992      -1.39305885E-13
  0.533999979      -2.24034279E-13
  0.535000026      -3.02161020E-13
  0.536000013      -3.70522487E-13
  0.537000000      -4.26320735E-13
  0.537999988      -4.67247606E-13
  0.538999975      -4.91588432E-13
  0.540000021      -4.98300023E-13
  0.541000009      -4.87059882E-13
  0.541999996      -4.58283476E-13
  0.542999983      -4.13108485E-13
  0.544000030      -3.53347180E-13
  0.545000017      -2.81408116E-13
  0.546000004      -2.00191006E-13
  0.546999991      -1.12959297E-13
  0.547999978      -2.31962005E-14
  0.549000025       6.55491422E-14
  0.550000012       1.49818282E-13
  0.550999999       2.26395549E-13
  0.551999986       2.92448628E-13
  0.552999973       3.45650754E-13
  0.554000020       3.84278980E-13
  0.555000007       4.07283663E-13
  0.555999994       4.14326017E-13
  0.556999981       4.05781772E-13
  0.558000028       3.82710871E-13
  0.559000015       3.46794696E-13
  0.560000002       3.00243744E-13
  0.560999990       2.45680510E-13
  0.561999977       1.86003231E-13
  0.563000023       1.24237128E-13
  0.564000010       6.33807040E-14
  0.564999998       6.25484195E-15
  0.565999985      -4.46379790E-14
  0.566999972      -8.72369803E-14
  0.568000019      -1.20022576E-13
  0.569000006      -1.42087080E-13
  0.569999993      -1.53172654E-13
  0.570999980      -1.53674586E-13
  0.572000027      -1.44609422E-13
  0.573000014      -1.27549474E-13
  0.574000001      -1.04526718E-13
  0.574999988      -7.79109646E-14
  0.575999975      -5.02685662E-14
  0.577000022      -2.42087437E-14
  0.578000009      -2.22563667E-15
  0.578999996       1.34555520E-14
  0.579999983       2.10200238E-14
  0.580999970       1.91847254E-14
  0.582000017       7.29252931E-15
  0.583000004      -1.46263312E-14
  0.583999991      -4.58296460E-14
  0.584999979      -8.48777767E-14
  0.586000025      -1.29687588E-13
  0.587000012      -1.77624164E-13
  0.588000000      -2.25626457E-13
  0.588999987      -2.70361506E-13
  0.589999974      -3.08400007E-13
  0.591000021      -3.36404814E-13
  0.592000008      -3.51323137E-13
  0.592999995      -3.50572436E-13
  0.593999982      -3.32210632E-13
  0.595000029      -2.95081207E-13
  0.596000016      -2.38924630E-13
  0.597000003      -1.64449807E-13
  0.597999990      -7.33600734E-14
  0.598999977       3.16692846E-14
  0.600000024       1.47062619E-13
  0.601000011       2.68463149E-13
  0.601999998       3.90895758E-13
  0.602999985       5.08967217E-13
  0.603999972       6.17096001E-13
  0.605000019       7.09761405E-13
  0.606000006       7.81761320E-13
  0.606999993       8.28467069E-13
  0.607999980       8.46062966E-13
  0.609000027       8.31759466E-13
  0.610000014       7.83968810E-13
  0.611000001       7.02434313E-13
  0.611999989       5.88305825E-13
  0.612999976       4.44156051E-13
  0.614000022       2.73935280E-13
  0.615000010       8.28646708E-14
  0.615999997      -1.22729097E-13
  0.616999984      -3.35632265E-13
  0.617999971      -5.48007549E-13
  0.619000018      -7.51692545E-13
  0.620000005      -9.38521179E-13
  0.620999992      -1.10065505E-12
  0.621999979      -1.23091056E-12
  0.623000026      -1.32306817E-12
  0.624000013      -1.37215055E-12
  0.625000000      -1.37465679E-12
  0.625999987      -1.32874245E-12
  0.626999974      -1.23433707E-12
  0.628000021      -1.09319259E-12
  0.629000008      -9.08860931E-13
  0.629999995      -6.86598348E-13
  0.630999982      -4.33201706E-13
  0.632000029      -1.56781014E-13
  0.633000016       1.33522994E-13
  0.634000003       4.27865452E-13
  0.634999990       7.16055470E-13
  0.635999978       9.87931742E-13
  0.637000024       1.23374141E-12
  0.638000011       1.44450652E-12
  0.638999999       1.61236400E-12
  0.639999986       1.73086567E-12
  0.640999973       1.79522673E-12
  0.642000020       1.80251257E-12
  0.643000007       1.75175683E-12
  0.643999994       1.64400633E-12
  0.644999981       1.48229129E-12
  0.646000028       1.27152206E-12
  0.647000015       1.01831640E-12
  0.648000002       7.30764841E-13
  0.648999989       4.18142788E-13
  0.649999976       9.05809309E-14
  0.651000023      -2.41293341E-13
  0.652000010      -5.66730148E-13
  0.652999997      -8.75232287E-13
  0.653999984      -1.15691809E-12
  0.654999971      -1.40285830E-12
  0.656000018      -1.60537512E-12
  0.657000005      -1.75829295E-12
  0.657999992      -1.85713294E-12
  0.658999979      -1.89924443E-12
  0.660000026      -1.88387001E-12
  0.661000013      -1.81214397E-12
  0.662000000      -1.68702444E-12
  0.662999988      -1.51316351E-12
  0.663999975      -1.29672109E-12
  0.665000021      -1.04513078E-12
  0.666000009      -7.66827248E-13
  0.666999996      -4.70944898E-13
  0.667999983      -1.66999525E-13
  0.669000030       1.35435012E-13
  0.670000017       4.27044522E-13
  0.671000004       6.99075780E-13
  0.671999991       9.43611075E-13
  0.672999978       1.15380752E-12
  0.674000025       1.32409459E-12
  0.675000012       1.45032315E-12
  0.675999999       1.52986369E-12
  0.676999986       1.56165152E-12
  0.677999973       1.54617866E-12
  0.679000020       1.48543461E-12
  0.680000007       1.38279926E-12
  0.680999994       1.24289316E-12
  0.681999981       1.07139124E-12
  0.683000028       8.74807009E-13
  0.684000015       6.60255108E-13
  0.685000002       4.35200487E-13
  0.685999990       2.07203056E-13
  0.686999977      -1.63341156E-14
  0.688000023      -2.28404914E-13
  0.689000010      -4.22620814E-13
  0.689999998      -5.93405804E-13
  0.690999985      -7.36159614E-13
  0.691999972      -8.47384554E-13
  0.693000019      -9.24772520E-13
  0.694000006      -9.67250152E-13
  0.694999993      -9.74981272E-13
  0.695999980      -9.49327422E-13
  0.697000027      -8.92768281E-13
  0.698000014      -8.08785005E-13
  0.699000001      -7.01710879E-13
  0.699999988      -5.76554700E-13
  0.700999975      -4.38803480E-13
  0.702000022      -2.94211026E-13
  0.703000009      -1.48579987E-13
  0.703999996      -7.54525430E-15
  0.704999983       1.23633647E-13
  0.705999970       2.40263782E-13
  0.707000017       3.38386545E-13
  0.708000004       4.14915606E-13
  0.708999991       4.67739996E-13
  0.709999979       4.95788415E-13
  0.711000025       4.99051863E-13
  0.712000012       4.78563749E-13
  0.713000000       4.36338086E-13
  0.713999987       3.75267688E-13
  0.714999974       2.98986693E-13
  0.716000021       2.11702536E-13
  0.717000008       1.18003873E-13
  0.717999995       2.26526832E-14
  0.718999982      -6.96307026E-14
  0.720000029      -1.54380740E-13
  0.721000016      -2.27588537E-13
  0.722000003      -2.85883242E-13
  0.722999990      -3.26684724E-13
  0.723999977      -3.48320222E-13
  0.725000024      -3.50099046E-13
  0.726000011      -3.32341332E-13
  0.726999998      -2.96358478E-13
  0.727999985      -2.44385865E-13
  0.728999972      -1.79470032E-13
  0.730000019      -1.05314391E-13
  0.731000006      -2.60907425E-14
  0.731999993       5.37750623E-14
  0.732999980       1.29833563E-13
  0.734000027       1.97846839E-13
  0.735000014       2.54016534E-13
  0.736000001       2.95193801E-13
  0.736999989       3.19059178E-13
  0.737999976       3.24262806E-13
  0.739000022       3.10516749E-13
  0.740000010       2.78632504E-13
  0.740999997       2.30500704E-13
  0.741999984       1.69011967E-13
  0.742999971       9.79206543E-14
  0.744000018       2.16571112E-14
  0.745000005      -5.49041403E-14
  0.745999992      -1.26709109E-13
  0.746999979      -1.88809797E-13
  0.748000026      -2.36656181E-13
  0.749000013      -2.66378879E-13
  0.750000000      -2.75047671E-13
  0.750999987      -2.60891162E-13
  0.751999974      -2.23463717E-13
  0.753000021      -1.63748165E-13
  0.754000008      -8.41864827E-14
  0.754999995       1.13673549E-14
  0.755999982       1.17773575E-13
  0.757000029       2.28809674E-13
  0.758000016       3.37443642E-13
  0.759000003       4.36166430E-13
  0.759999990       5.17370109E-13
  0.760999978       5.73755019E-13
  0.762000024       5.98745988E-13
  0.763000011       5.86897176E-13
  0.763999999       5.34264527E-13
  0.764999986       4.38725445E-13
  0.765999973       3.00226939E-13
  0.767000020       1.20944989E-13
  0.768000007      -9.46562978E-14
  0.768999994      -3.39874559E-13
  0.769999981      -6.05930995E-13
  0.771000028      -8.82242684E-13
  0.772000015      -1.15679786E-12
  0.773000002      -1.41662051E-12
  0.773999989      -1.64830909E-12
  0.774999976      -1.83862430E-12
  0.776000023      -1.97510172E-12
  0.777000010      -2.04666427E-12
  0.777999997      -2.04420140E-12
  0.778999984      -1.96109079E-12
  0.779999971      -1.79363273E-12
  0.781000018      -1.54137543E-12
  0.782000005      -1.20731127E-12
  0.782999992      -7.97929593E-13
  0.783999979      -3.23117862E-13
  0.785000026       2.04091708E-13
  0.786000013       7.67921263E-13
  0.787000000       1.35038248E-12
  0.787999988       1.93192771E-12
  0.788999975       2.49219157E-12
  0.790000021       3.01079496E-12
  0.791000009       3.46817605E-12
  0.791999996       3.84641364E-12
  0.792999983       4.13000537E-12
  0.794000030       4.30656856E-12
  0.795000017       4.36742613E-12
  0.796000004       4.30805435E-12
  0.796999991       4.12836735E-12
  0.797999978       3.83282078E-12
  0.799000025       3.43032937E-12
  0.800000012       2.93399918E-12
  0.800999999       2.36067914E-12
  0.801999986       1.73035056E-12
  0.802999973       1.06538064E-12
  0.804000020       3.89664809E-13
  0.805000007      -2.72300953E-13
  0.805999994      -8.96379325E-13
  0.806999981      -1.45974487E-12
  0.808000028      -1.94178723E-12
  0.809000015      -2.32492064E-12
  0.810000002      -2.59527100E-12
  0.810999990      -2.74320909E-12
  0.811999977      -2.76370441E-12
  0.813000023      -2.65648181E-12
  0.814000010      -2.42597695E-12
  0.814999998      -2.08109485E-12
  0.815999985      -1.63477695E-12
  0.816999972      -1.10340101E-12
  0.818000019      -5.06039655E-13
  0.819000006       1.36389733E-13
  0.819999993       8.02043599E-13
  0.820999980       1.46909524E-12
  0.822000027       2.11665950E-12
  0.823000014       2.72566344E-12
  0.824000001       3.27961985E-12
  0.824999988       3.76526544E-12
  0.825999975       4.17303952E-12
  0.827000022       4.49737903E-12
  0.828000009       4.73682248E-12
  0.828999996       4.89391644E-12
  0.829999983       4.97493409E-12
  0.830999970       4.98941817E-12
  0.832000017       4.94957287E-12
  0.833000004       4.86953663E-12
  0.833999991       4.76457545E-12
  0.834999979       4.65023029E-12
  0.836000025       4.54146356E-12
  0.837000012       4.45184731E-12
  0.838000000       4.39283592E-12
  0.838999987       4.37315678E-12
  0.839999974       4.39834757E-12
  0.841000021       4.47046350E-12
  0.842000008       4.58796976E-12
  0.842999995       4.74582873E-12
  0.843999982       4.93577054E-12
  0.845000029       5.14674111E-12
  0.846000016       5.36549841E-12
  0.847000003       5.57733070E-12
  0.847999990       5.76686832E-12
  0.848999977       5.91894199E-12
  0.850000024       6.01944536E-12
  0.851000011       6.05616165E-12
  0.851999998       6.01951431E-12
  0.852999985       5.90320111E-12
  0.853999972       5.70468152E-12
  0.855000019       5.42548948E-12
  0.856000006       5.07136260E-12