   0.00000000       0.00000000    
   1.00000005E-03   0.00000000    
   2.00000009E-03   0.00000000    
   3.00000003E-03   0.00000000    
   4.00000019E-03   0.00000000    
   4.99999989E-03   0.00000000    
   6.00000005E-03   2.32373574E-24
   7.00000022E-03   2.93985772E-23
   8.00000038E-03   1.99406038E-22
   8.99999961E-03   9.61832025E-22
   9.99999978E-03   3.69470278E-21
   1.09999999E-02   1.20074871E-20
   1.20000001E-02   3.42669521E-20
   1.30000003E-02   8.80372009E-20
   1.40000004E-02   2.07246173E-19
   1.49999997E-02   4.52884125E-19
   1.60000008E-02   9.27807754E-19
   1.70000009E-02   1.79566973E-18
   1.79999992E-02   3.30301801E-18
   1.89999994E-02   5.80214302E-18
   1.99999996E-02   9.77030915E-18
   2.09999997E-02   1.58185686E-17
   2.19999999E-02   2.46807782E-17
   2.30000000E-02   3.71706214E-17
   2.40000002E-02   5.40925067E-17
   2.50000004E-02   7.60904983E-17
   2.60000005E-02   1.03419778E-16
   2.70000007E-02   1.35628663E-16
   2.80000009E-02   1.71141406E-16
   2.89999992E-02   2.06745549E-16
   2.99999993E-02   2.36994075E-16
   3.09999995E-02   2.53555078E-16
   3.20000015E-02   2.44553500E-16
   3.29999998E-02   1.93980670E-16
   3.40000018E-02   8.12619719E-17
   3.50000001E-02  -1.18897009E-16
   3.59999985E-02  -4.36261884E-16
   3.70000005E-02  -9.04244517E-16
   3.79999988E-02  -1.55837556E-15
   3.90000008E-02  -2.43393583E-15
   3.99999991E-02  -3.56258542E-15
   4.10000011E-02  -4.96798080E-15
   4.19999994E-02  -6.66032425E-15
   4.30000015E-02  -8.62997824E-15
   4.39999998E-02  -1.08402557E-14
   4.50000018E-02  -1.32197838E-14
   4.60000001E-02  -1.56548934E-14
   4.69999984E-02  -1.79825264E-14
   4.80000004E-02  -1.99845244E-14
   4.89999987E-02  -2.13841142E-14
   5.00000007E-02  -2.18454947E-14
   5.09999990E-02  -2.09775858E-14
   5.20000011E-02  -1.83429101E-14
   5.29999994E-02  -1.34724529E-14
   5.40000014E-02  -5.88729699E-15
   5.49999997E-02   4.87251934E-15
   5.60000017E-02   1.92119490E-14
   5.70000000E-02   3.74379923E-14
   5.79999983E-02   5.97106728E-14
   5.90000004E-02   8.59897616E-14
   5.99999987E-02   1.15979397E-13
   6.10000007E-02   1.49073475E-13
   6.19999990E-02   1.84305682E-13
   6.30000010E-02   2.20307876E-13
   6.40000030E-02   2.55281825E-13
   6.49999976E-02   2.86990456E-13
   6.59999996E-02   3.12769748E-13
   6.70000017E-02   3.29571629E-13
   6.80000037E-02   3.34037594E-13
   6.89999983E-02   3.22606525E-13
   7.00000003E-02   2.91661904E-13
   7.10000023E-02   2.37714877E-13
   7.19999969E-02   1.57621569E-13
   7.29999989E-02   4.88323507E-14
   7.40000010E-02  -9.03362671E-14
   7.50000030E-02  -2.60416173E-13
   7.59999976E-02  -4.60502350E-13
   7.69999996E-02  -6.87980326E-13
   7.80000016E-02  -9.38287208E-13
   7.90000036E-02  -1.20472241E-12
   7.99999982E-02  -1.47833200E-12
   8.10000002E-02  -1.74787864E-12
   8.20000023E-02  -1.99992843E-12
   8.29999968E-02  -2.21906282E-12
   8.39999989E-02  -2.38822547E-12
   8.50000009E-02  -2.48922627E-12
   8.60000029E-02  -2.50338769E-12
   8.69999975E-02  -2.41234875E-12
   8.79999995E-02  -2.19898297E-12
   8.90000015E-02  -1.84844631E-12
   9.00000036E-02  -1.34929199E-12
   9.09999982E-02  -6.94625347E-13
   9.20000002E-02   1.16752745E-13
   9.30000022E-02   1.07927014E-12
   9.39999968E-02   2.17964644E-12
   9.49999988E-02   3.39614751E-12
   9.60000008E-02   4.69811386E-12
   9.70000029E-02   6.04582053E-12
   9.79999974E-02   7.39073559E-12
   9.89999995E-02   8.67620299E-12
  0.100000001       9.83865246E-12
  0.101000004       1.08092589E-11
  0.101999998       1.15161387E-11
  0.103000000       1.18870174E-11
  0.104000002       1.18523212E-11
  0.104999997       1.13486130E-11
  0.105999999       1.03222882E-11
  0.107000001       8.73338641E-12
  0.108000003       6.55934205E-12
  0.108999997       3.79853007E-12
  0.109999999       4.73422733E-13
  0.111000001      -3.36688641E-12
  0.112000003      -7.64493937E-12
  0.112999998      -1.22541716E-11
  0.114000000      -1.70593227E-11
  0.115000002      -2.18981083E-11
  0.115999997      -2.65843996E-11
  0.116999999      -3.09126787E-11
  0.118000001      -3.46640598E-11
  0.119000003      -3.76136865E-11
  0.119999997      -3.95392122E-11
  0.120999999      -4.02304648E-11
  0.122000001      -3.94996397E-11
  0.123000003      -3.71920723E-11
  0.123999998      -3.31967891E-11
  0.125000000      -2.74566203E-11
  0.126000002      -1.99773011E-11
  0.127000004      -1.08350932E-11
  0.128000006      -1.82296710E-13
  0.128999993       1.17496984E-11
  0.129999995       2.46502853E-11
  0.130999997       3.81327747E-11
  0.131999999       5.17412085E-11
  0.133000001       6.49606688E-11
  0.134000003       7.72313810E-11
  0.135000005       8.79662593E-11
  0.136000007       9.65715841E-11
  0.136999995       1.02470449E-10
  0.137999997       1.05127906E-10
  0.138999999       1.04077733E-10
  0.140000001       9.89487520E-11
  0.141000003       8.94906996E-11
  0.142000005       7.55978058E-11
  0.143000007       5.73290894E-11
  0.143999994       3.49241365E-11
  0.144999996       8.81330425E-12
  0.145999998      -2.03788236E-11
  0.147000000      -5.18374406E-11
  0.148000002      -8.45696430E-11
  0.149000004      -1.17425139E-10
  0.150000006      -1.49125504E-10
  0.150999993      -1.78301721E-10
  0.151999995      -2.03538991E-10
  0.152999997      -2.23428734E-10
  0.153999999      -2.36625108E-10
  0.155000001      -2.41905107E-10
  0.156000003      -2.38230213E-10
  0.157000005      -2.24806146E-10
  0.158000007      -2.01140077E-10
  0.158999994      -1.67090716E-10
  0.159999996      -1.22910113E-10
  0.160999998      -6.92736979E-11
  0.162000000      -7.29685583E-12
  0.163000003       6.14645002E-11
  0.164000005       1.35030279E-10
  0.165000007       2.11031081E-10
  0.165999994       2.86761753E-10
  0.166999996       3.59252877E-10
  0.167999998       4.25360219E-10
  0.169000000       4.81868823E-10
  0.170000002       5.25610167E-10
  0.171000004       5.53589230E-10
  0.172000006       5.63115665E-10
  0.172999993       5.51936830E-10
  0.173999995       5.18366128E-10
  0.174999997       4.61401001E-10
  0.175999999       3.80826815E-10
  0.177000001       2.77299794E-10
  0.178000003       1.52404048E-10
  0.179000005       8.67938707E-12
  0.180000007      -1.50384913E-10
  0.180999994      -3.20392518E-10
  0.181999996      -4.96120867E-10
  0.182999998      -6.71638967E-10
  0.184000000      -8.40464143E-10
  0.185000002      -9.95750815E-10
  0.186000004      -1.13051135E-09
  0.187000006      -1.23786037E-09
  0.187999994      -1.31127587E-09
  0.188999996      -1.34487177E-09
  0.189999998      -1.33366673E-09
  0.191000000      -1.27384570E-09
  0.192000002      -1.16299959E-09
  0.193000004      -1.00033271E-09
  0.194000006      -7.86830323E-10
  0.194999993      -5.25375854E-10
  0.195999995      -2.20805360E-10
  0.196999997       1.20099999E-10
  0.197999999       4.88694474E-10
  0.199000001       8.74620654E-10
  0.200000003       1.26603650E-09
  0.201000005       1.64991454E-09
  0.202000007       2.01240269E-09
  0.202999994       2.33924879E-09
  0.203999996       2.61626676E-09
  0.204999998       2.82983748E-09
  0.206000000       2.96743163E-09
  0.207000002       3.01812797E-09
  0.208000004       2.97311575E-09
  0.209000006       2.82616419E-09
  0.209999993       2.57402988E-09
  0.210999995       2.21679541E-09
  0.211999997       1.75811155E-09
  0.213000000       1.20534005E-09
  0.214000002       5.69567282E-10
  0.215000004      -1.34499217E-10
  0.216000006      -8.88775442E-10
  0.216999993      -1.67217185E-09
  0.217999995      -2.46110266E-09
  0.218999997      -3.23010574E-09
  0.219999999      -3.95257382E-09
  0.221000001      -4.60157956E-09
  0.222000003      -5.15075671E-09
  0.223000005      -5.57522917E-09
  0.224000007      -5.85254467E-09
  0.224999994      -5.96359051E-09
  0.225999996      -5.89345772E-09
  0.226999998      -5.63221203E-09
  0.228000000      -5.17554621E-09
  0.229000002      -4.52529214E-09
  0.230000004      -3.68974762E-09
  0.231000006      -2.68380695E-09
  0.231999993      -1.52888813E-09
  0.232999995      -2.52617927E-10
  0.233999997       1.11169440E-09
  0.234999999       2.52581556E-09
  0.236000001       3.94755162E-09
  0.237000003       5.33190470E-09
  0.238000005       6.63239241E-09
  0.238999993       7.80249021E-09
  0.239999995       8.79716122E-09
  0.240999997       9.57442836E-09
  0.241999999       1.00969269E-08
  0.243000001       1.03333919E-08
  0.244000003       1.02600417E-08
  0.245000005       9.86176651E-09
  0.246000007       9.13312093E-09
  0.246999994       8.07902545E-09
  0.247999996       6.71518352E-09
  0.248999998       5.06814946E-09
  0.250000000       3.17506088E-09
  0.250999987       1.08297882E-09
  0.252000004      -1.15211063E-09
  0.252999991      -3.46664852E-09
  0.254000008      -5.79118220E-09
  0.254999995      -8.05231615E-09
  0.256000012      -1.01749009E-08
  0.256999999      -1.20843877E-08
  0.257999986      -1.37092773E-08
  0.259000003      -1.49836108E-08
  0.259999990      -1.58493894E-08
  0.261000007      -1.62588325E-08
  0.261999995      -1.61764717E-08
  0.263000011      -1.55808664E-08
  0.263999999      -1.44660293E-08
  0.264999986      -1.28423325E-08
  0.266000003      -1.07369704E-08
  0.266999990      -8.19389179E-09
  0.268000007      -5.27317034E-09
  0.268999994      -2.04981365E-09
  0.270000011       1.38795053E-09
  0.270999998       4.94091923E-09
  0.272000015       8.50160475E-09
  0.273000002       1.19573258E-08
  0.273999989       1.51936081E-08
  0.275000006       1.80977935E-08
  0.275999993       2.05627444E-08
  0.277000010       2.24905552E-08
  0.277999997       2.37960940E-08
  0.279000014       2.44103209E-08
  0.280000001       2.42831852E-08
  0.280999988       2.33860860E-08
  0.282000005       2.17136797E-08
  0.282999992       1.92850749E-08
  0.284000009       1.61442149E-08
  0.284999996       1.23595525E-08
  0.286000013       8.02285172E-09
  0.287000000       3.24722138E-09
  0.287999988      -1.83562143E-09
  0.289000005      -7.07881487E-09
  0.289999992      -1.23244304E-08
  0.291000009      -1.74080537E-08
  0.291999996      -2.21637961E-08
  0.293000013      -2.64294933E-08
  0.294000000      -3.00520391E-08
  0.294999987      -3.28925793E-08
  0.296000004      -3.48314870E-08
  0.296999991      -3.57728567E-08
  0.298000008      -3.56484797E-08
  0.298999995      -3.44209816E-08
  0.300000012      -3.20861382E-08
  0.300999999      -2.86742612E-08
  0.301999986      -2.42504008E-08
  0.303000003      -1.89135552E-08
  0.303999990      -1.27947484E-08
  0.305000007      -6.05395511E-09
  0.305999994       1.12388898E-09
  0.307000011       8.53392645E-09
  0.307999998       1.59571165E-08
  0.308999985       2.31666775E-08
  0.310000002       2.99349203E-08
  0.310999990       3.60403867E-08
  0.312000006       4.12749444E-08
  0.312999994       4.54507472E-08
  0.314000010       4.84066973E-08
  0.314999998       5.00142541E-08
  0.316000015       5.01824360E-08
  0.317000002       4.88617147E-08
  0.317999989       4.60467575E-08
  0.319000006       4.17777564E-08
  0.319999993       3.61405164E-08
  0.321000010       2.92649354E-08
  0.321999997       2.13221654E-08
  0.323000014       1.25204060E-08
  0.324000001       3.09933967E-09
  0.324999988      -6.67646338E-09
  0.326000005      -1.65251066E-08
  0.326999992      -2.61556643E-08
  0.328000009      -3.52769050E-08
  0.328999996      -4.36062315E-08
  0.330000013      -5.08785902E-08
  0.331000000      -5.68549012E-08
  0.331999987      -6.13299420E-08
  0.333000004      -6.41392859E-08
  0.333999991      -6.51650751E-08
  0.335000008      -6.43404903E-08
  0.335999995      -6.16527203E-08
  0.337000012      -5.71441916E-08
  0.338000000      -5.09122593E-08
  0.338999987      -4.31070859E-08
  0.340000004      -3.39278614E-08
  0.340999991      -2.36174955E-08
  0.342000008      -1.24558808E-08
  0.342999995      -7.51891716E-10
  0.344000012       1.11655361E-08
  0.344999999       2.29570869E-08
  0.345999986       3.42831186E-08
  0.347000003       4.48138557E-08
  0.347999990       5.42393437E-08
  0.349000007       6.22788434E-08
  0.349999994       6.86894097E-08
  0.351000011       7.32733980E-08
  0.351999998       7.58845005E-08
  0.352999985       7.64324426E-08
  0.354000002       7.48857474E-08
  0.354999989       7.12729360E-08
  0.356000006       6.56817818E-08
  0.356999993       5.82567381E-08
  0.358000010       4.91948597E-08
  0.358999997       3.87398806E-08
  0.360000014       2.71751013E-08
  0.361000001       1.48150727E-08
  0.361999989       1.99636618E-09
  0.363000005      -1.09322995E-08
  0.363999993      -2.36200108E-08
  0.365000010      -3.57238896E-08
  0.365999997      -4.69187000E-08
  0.367000014      -5.69060248E-08
  0.368000001      -6.54223342E-08
  0.368999988      -7.22461380E-08
  0.370000005      -7.72036231E-08
  0.370999992      -8.01728746E-08
  0.372000009      -8.10864975E-08
  0.372999996      -7.99326330E-08
  0.374000013      -7.67542971E-08
  0.375000000      -7.16472499E-08
  0.375999987      -6.47563212E-08
  0.377000004      -5.62705829E-08
  0.377999991      -4.64172238E-08
  0.379000008      -3.54547254E-08
  0.379999995      -2.36653257E-08
  0.381000012      -1.13470016E-08
  0.381999999       1.19452748E-09
  0.382999986       1.36537999E-08
  0.384000003       2.57332946E-08
  0.384999990       3.71504996E-08
  0.386000007       4.76443169E-08
  0.386999995       5.69806957E-08
  0.388000011       6.49571064E-08
  0.388999999       7.14062622E-08
  0.389999986       7.61985390E-08
  0.391000003       7.92435770E-08
  0.391999990       8.04907003E-08
  0.393000007       7.99285758E-08
  0.393999994       7.75839766E-08
  0.395000011       7.35198427E-08
  0.395999998       6.78327794E-08
  0.397000015       6.06500379E-08
  0.398000002       5.21262642E-08
  0.398999989       4.24399111E-08
  0.400000006       3.17896465E-08
  0.400999993       2.03905426E-08
  0.402000010       8.47052561E-09
  0.402999997      -3.73332076E-09
  0.404000014      -1.59782978E-08
  0.405000001      -2.80195440E-08
  0.405999988      -3.96134112E-08
  0.407000005      -5.05209172E-08
  0.407999992      -6.05110415E-08
  0.409000009      -6.93642477E-08
  0.409999996      -7.68758071E-08
  0.411000013      -8.28595574E-08
  0.412000000      -8.71514061E-08
  0.412999988      -8.96131311E-08
  0.414000005      -9.01361261E-08
  0.414999992      -8.86450096E-08
  0.416000009      -8.51012558E-08
  0.416999996      -7.95063499E-08
  0.418000013      -7.19047222E-08
  0.419000000      -6.23859293E-08
  0.419999987      -5.10861931E-08
  0.421000004      -3.81889045E-08
  0.421999991      -2.39241551E-08
  0.423000008      -8.56692495E-09
  0.423999995       7.56605711E-09
  0.425000012       2.41208991E-08
  0.425999999       4.07126173E-08
  0.426999986       5.69326559E-08
  0.428000003       7.23578353E-08
  0.428999990       8.65605472E-08
  0.430000007       9.91198519E-08
  0.430999994       1.09633632E-07
  0.432000011       1.17730885E-07
  0.432999998       1.23084334E-07
  0.433999985       1.25422602E-07
  0.435000002       1.24541671E-07
  0.435999990       1.20314908E-07
  0.437000006       1.12701954E-07
  0.437999994       1.01754900E-07
  0.439000010       8.76224391E-08
  0.439999998       7.05511951E-08
  0.441000015       5.08839477E-08
  0.442000002       2.90548012E-08
  0.442999989       5.58110802E-09
  0.444000006      -1.89476967E-08
  0.444999993      -4.38841177E-08
  0.446000010      -6.85394141E-08
  0.446999997      -9.22025123E-08
  0.448000014      -1.14160734E-07
  0.449000001      -1.33721556E-07
  0.449999988      -1.50234769E-07
  0.451000005      -1.63114478E-07
  0.451999992      -1.71860094E-07
  0.453000009      -1.76075176E-07
  0.453999996      -1.75484274E-07
  0.455000013      -1.69946205E-07
  0.456000000      -1.59463610E-07
  0.456999987      -1.44188462E-07
  0.458000004      -1.24422613E-07
  0.458999991      -1.00613832E-07
  0.460000008      -7.33468113E-08
  0.460999995      -4.33293827E-08
  0.462000012      -1.13744205E-08
  0.463000000       2.16224283E-08
  0.463999987       5.47082415E-08
  0.465000004       8.69011103E-08
  0.465999991       1.17220168E-07
  0.467000008       1.44716395E-07
  0.467999995       1.68503291E-07
  0.469000012       1.87786327E-07
  0.469999999       2.01890217E-07
  0.470999986       2.10282764E-07
  0.472000003       2.12594955E-07
  0.472999990       2.08635896E-07
  0.474000007       1.98402617E-07
  0.474999994       1.82083681E-07
  0.476000011       1.60056686E-07
  0.476999998       1.32879919E-07
  0.477999985       1.01277543E-07
  0.479000002       6.61196253E-08
  0.479999989       2.83967800E-08
  0.481000006      -1.08091447E-08
  0.481999993      -5.03579294E-08
  0.483000010      -8.90860150E-08
  0.483999997      -1.25842448E-07
  0.485000014      -1.59525285E-07
  0.486000001      -1.89115966E-07
  0.486999989      -2.13712141E-07
  0.488000005      -2.32555863E-07
  0.488999993      -2.45058317E-07
  0.490000010      -2.50818488E-07
  0.490999997      -2.49635917E-07
  0.492000014      -2.41517284E-07
  0.493000001      -2.26676178E-07
  0.493999988      -2.05525836E-07
  0.495000005      -1.78666184E-07
  0.495999992      -1.46864380E-07
  0.497000009      -1.11030083E-07
  0.497999996      -7.21865518E-08
  0.499000013      -3.14382866E-08
  0.500000000       1.00640580E-08
  0.500999987       5.11592120E-08
  0.501999974       9.07112820E-08
  0.503000021       1.27644356E-07
  0.504000008       1.60974423E-07
  0.504999995       1.89838019E-07
  0.505999982       2.13516458E-07
  0.507000029       2.31454692E-07
  0.508000016       2.43275224E-07
  0.509000003       2.48784801E-07
  0.509999990       2.47976232E-07
  0.510999978       2.41023088E-07
  0.512000024       2.28269656E-07
  0.513000011       2.10214750E-07
  0.513999999       1.87492006E-07
  0.514999986       1.60845502E-07
  0.515999973       1.31103363E-07
  0.517000020       9.91492968E-08
  0.518000007       6.58936088E-08
  0.518999994       3.22443618E-08
  0.519999981      -9.19992083E-10
  0.521000028      -3.27756844E-08
  0.522000015      -6.25756584E-08
  0.523000002      -8.96682266E-08
  0.523999989      -1.13511355E-07
  0.524999976      -1.33682363E-07
  0.526000023      -1.49883419E-07
  0.527000010      -1.61942367E-07
  0.527999997      -1.69809255E-07
  0.528999984      -1.73549225E-07
  0.529999971      -1.73331799E-07
  0.531000018      -1.69417731E-07
  0.532000005      -1.62143536E-07
  0.532999992      -1.51905141E-07
  0.533999979      -1.39140610E-07
  0.535000026      -1.24313601E-07
  0.536000013      -1.07896923E-07
  0.537000000      -9.03581281E-08
  0.537999988      -7.21469036E-08
  0.538999975      -5.36844382E-08
  0.540000021      -3.53554626E-08
  0.541000009      -1.75028720E-08
  0.541999996      -4.24401875E-10
  0.542999983       1.56278013E-08
  0.544000030       3.04460990E-08
  0.545000017       4.38644534E-08
  0.546000004       5.57541142E-08
  0.546999991       6.60189983E-08
  0.547999978       7.45907514E-08
  0.549000025       8.14230603E-08
  0.550000012       8.64883063E-08
  0.550999999       8.97732306E-08
  0.551999986       9.12772506E-08
  0.552999973       9.10110032E-08
  0.554000020       8.89970124E-08
  0.555000007       8.52710187E-08
  0.555999994       7.98849342E-08
  0.556999981       7.29099767E-08
  0.558000028       6.44404565E-08
  0.559000015       5.45981393E-08
  0.560000002       4.35354615E-08
  0.560999990       3.14381801E-08
  0.561999977       1.85270395E-08
  0.563000023       5.05717779E-09
  0.564000010      -8.68353300E-09
  0.564999998      -2.23786873E-08
  0.565999985      -3.56900642E-08
  0.566999972      -4.82653704E-08
  0.568000019      -5.97489631E-08
  0.569000006      -6.97935221E-08
  0.569999993      -7.80730289E-08
  0.570999980      -8.42961896E-08
  0.572000027      -8.82202542E-08
  0.573000014      -8.96633949E-08
  0.574000001      -8.85166997E-08
  0.574999988      -8.47529762E-08
  0.575999975      -7.84340912E-08
  0.577000022      -6.97139200E-08
  0.578000009      -5.88387330E-08
  0.578999996      -4.61428584E-08
  0.579999983      -3.20409121E-08
  0.580999970      -1.70160774E-08
  0.582000017      -1.60438229E-09
  0.583000004       1.36235050E-08
  0.583999991       2.80837948E-08
  0.584999979       4.12022843E-08
  0.586000025       5.24379296E-08
  0.587000012       6.13066433E-08
  0.588000000       6.74033771E-08
  0.588999987       7.04223311E-08
  0.589999974       7.01737193E-08
  0.591000021       6.65965558E-08
  0.592000008       5.97664069E-08
  0.592999995       4.98976469E-08
  0.593999982       3.73399516E-08
  0.595000029       2.25692016E-08
  0.596000016       6.17167384E-09
  0.597000003      -1.11761906E-08
  0.597999990      -2.87333997E-08
  0.598999977      -4.57232687E-08
  0.600000024      -6.13659381E-08
  0.601000011      -7.49109290E-08
  0.601999998      -8.56720348E-08
  0.602999985      -9.30578139E-08
  0.603999972      -9.66020650E-08
  0.605000019      -9.59882556E-08
  0.606000006      -9.10698645E-08
  0.606999993      -8.18827743E-08
  0.607999980      -6.86514454E-08
  0.609000027      -5.17873957E-08
  0.610000014      -3.18784075E-08
  0.611000001      -9.67039515E-09
  0.611999989       1.39576146E-08
  0.612999976       3.80256253E-08
  0.614000022       6.14911784E-08
  0.615000010       8.32902387E-08
  0.615999997       1.02382728E-07
  0.616999984       1.17796489E-07
  0.617999971       1.28671687E-07
  0.619000018       1.34301672E-07
  0.620000005       1.34169099E-07
  0.620999992       1.27974687E-07
  0.621999979       1.15658743E-07
  0.623000026       9.74127303E-08
  0.624000013       7.36819601E-08
  0.625000000       4.51564048E-08
  0.625999987       1.27515500E-08
  0.626999974      -2.24204495E-08
  0.628000021      -5.90891425E-08
  0.629000008      -9.58718758E-08
  0.629999995      -1.31326516E-07
  0.630999982      -1.64006948E-07
  0.632000029      -1.92522791E-07
  0.633000016      -2.15597069E-07
  0.634000003      -2.32121366E-07
  0.634999990      -2.41207204E-07
  0.635999978      -2.42227685E-07
  0.637000024      -2.34852394E-07
  0.638000011      -2.19069918E-07
  0.638999999      -1.95197629E-07
  0.639999986      -1.63880472E-07
  0.640999973      -1.26074141E-07
  0.642000020      -8.30180653E-08
  0.643000007      -3.61929331E-08
  0.643999994       1.27294744E-08
  0.644999981       6.19479010E-08
  0.646000028       1.09597643E-07
  0.647000015       1.53823066E-07
  0.648000002       1.92850266E-07
  0.648999989       2.25058301E-07
  0.649999976       2.49046479E-07
  0.651000023       2.63695313E-07
  0.652000010       2.68216183E-07
  0.652999997       2.62189019E-07
  0.653999984       2.45588865E-07
  0.654999971       2.18793602E-07
  0.656000018       1.82579740E-07
  0.657000005       1.38100219E-07
  0.657999992       8.68469883E-08
  0.658999979       3.06004040E-08
  0.660000026      -2.86326092E-08
  0.661000013      -8.86927012E-08
  0.662000000      -1.47349340E-07
  0.662999988      -2.02383234E-07
  0.663999975      -2.51672844E-07
  0.665000021      -2.93276713E-07
  0.666000009      -3.25512360E-07
  0.666999996      -3.47022080E-07
  0.667999983      -3.56832146E-07
  0.669000030      -3.54394331E-07
  0.670000017      -3.39611688E-07
  0.671000004      -3.12850005E-07
  0.671999991      -2.74929306E-07
  0.672999978      -2.27097388E-07
  0.674000025      -1.70987647E-07
  0.675000012      -1.08562503E-07
  0.675999999      -4.20402699E-08
  0.676999986       2.61827271E-08
  0.677999973       9.36246991E-08
  0.679000020       1.57809311E-07
  0.680000007       2.16357662E-07
  0.680999994       2.67080082E-07
  0.681999981       3.08058105E-07
  0.683000028       3.37718802E-07
  0.684000015       3.54893274E-07
  0.685000002       3.58863360E-07
  0.685999990       3.49387932E-07
  0.686999977       3.26713092E-07
  0.688000023       2.91564191E-07
  0.689000010       2.45116212E-07
  0.689999998       1.88953791E-07
  0.690999985       1.25006011E-07
  0.691999972       5.54781430E-08
  0.693000019      -1.72336918E-08
  0.694000006      -9.06314384E-08
  0.694999993      -1.62209076E-07
  0.695999980      -2.29543801E-07
  0.697000027      -2.90387078E-07
  0.698000014      -3.42745295E-07
  0.699000001      -3.84949345E-07
  0.699999988      -4.15714652E-07
  0.700999975      -4.34180521E-07
  0.702000022      -4.39938731E-07
  0.703000009      -4.33038679E-07
  0.703999996      -4.13977801E-07
  0.704999983      -3.83675257E-07
  0.705999970      -3.43427018E-07
  0.707000017      -2.94849713E-07
  0.708000004      -2.39810646E-07
  0.708999991      -1.80355485E-07
  0.709999979      -1.18618999E-07
  0.711000025      -5.67483518E-08
  0.712000012       3.18444826E-09
  0.713000000       5.92562870E-08
  0.713999987       1.09763967E-07
  0.714999974       1.53278606E-07
  0.716000021       1.88698536E-07
  0.717000008       2.15269978E-07
  0.717999995       2.32609409E-07
  0.718999982       2.40701297E-07
  0.720000029       2.39878403E-07
  0.721000016       2.30797568E-07
  0.722000003       2.14390411E-07
  0.722999990       1.91813513E-07
  0.723999977       1.64388140E-07
  0.725000024       1.33529937E-07
  0.726000011       1.00684339E-07
  0.726999998       6.72577372E-08
  0.727999985       3.45578144E-08
  0.728999972       3.73769549E-09
  0.730000019      -2.42522589E-08
  0.731000006      -4.86994018E-08
  0.731999993      -6.91457274E-08
  0.732999980      -8.53983622E-08
  0.734000027      -9.75296501E-08
  0.735000014      -1.05848265E-07
  0.736000001      -1.10877664E-07
  0.736999989      -1.13315103E-07
  0.737999976      -1.13977954E-07
  0.739000022      -1.13753174E-07
  0.740000010      -1.13539123E-07
  0.740999997      -1.14190307E-07
  0.741999984      -1.16461379E-07
  0.742999971      -1.20959768E-07
  0.744000018      -1.28109065E-07
  0.745000005      -1.38111020E-07
  0.745999992      -1.50935364E-07
  0.746999979      -1.66309988E-07
  0.748000026      -1.83728616E-07
  0.749000013      -2.02470190E-07
  0.750000000      -2.21635332E-07
  0.750999987      -2.40181095E-07
  0.751999974      -2.56980371E-07
  0.753000021      -2.70873272E-07
  0.754000008      -2.80726141E-07
  0.754999995      -2.85498572E-07
  0.755999982      -2.84298892E-07
  0.757000029      -2.76434292E-07
  0.758000016      -2.61459661E-07
  0.759000003      -2.39215268E-07
  0.759999990      -2.09842170E-07
  0.760999978      -1.73797474E-07
  0.762000024      -1.31849177E-07
  0.763000011      -8.50549569E-08
  0.763999999      -3.47324232E-08
  0.764999986       1.75864496E-08
  0.765999973       7.02089125E-08
  0.767000020       1.21349458E-07
  0.768000007       1.69195417E-07
  0.768999994       2.11978787E-07
  0.769999981       2.48047598E-07
  0.771000028       2.75940437E-07
  0.772000015       2.94438451E-07
  0.773000002       3.02620833E-07
  0.773999989       2.99907242E-07
  0.774999976       2.86089346E-07
  0.776000023       2.61335458E-07
  0.777000010       2.26192356E-07
  0.777999997       1.81571707E-07
  0.778999984       1.28704301E-07
  0.779999971       6.91122324E-08
  0.781000018       4.54101556E-09
  0.782000005      -6.30974597E-08
  0.782999992      -1.31805351E-07
  0.783999979      -1.99568277E-07
  0.785000026      -2.64425125E-07
  0.786000013      -3.24546960E-07
  0.787000000      -3.78296818E-07
  0.787999988      -4.24283940E-07
  0.788999975      -4.61408121E-07
  0.790000021      -4.88903424E-07
  0.791000009      -5.06335255E-07
  0.791999996      -5.13619113E-07
  0.792999983      -5.11004032E-07
  0.794000030      -4.99044802E-07
  0.795000017      -4.78572758E-07
  0.796000004      -4.50643029E-07
  0.796999991      -4.16484028E-07
  0.797999978      -3.77437004E-07
  0.799000025      -3.34885613E-07
  0.800000012      -2.90218026E-07
  0.800999999      -2.44747071E-07
  0.801999986      -1.99671192E-07
  0.802999973      -1.56029841E-07
  0.804000020      -1.14671487E-07
  0.805000007      -7.62394023E-08
  0.805999994      -4.11583017E-08
  0.806999981      -9.64614255E-09
  0.808000028       1.82731696E-08
  0.809000015       4.27451425E-08
  0.810000002       6.40421405E-08
  0.810999990       8.25187030E-08
  0.811999977       9.85782762E-08
  0.813000023       1.12616213E-07
  0.814000010       1.24967869E-07
  0.814999998       1.35875680E-07
  0.815999985       1.45458699E-07
  0.816999972       1.53681839E-07
  0.818000019       1.60345465E-07
  0.819000006       1.65072663E-07
  0.819999993       1.67346343E-07
  0.820999980       1.66497898E-07
  0.822000027       1.61780378E-07
  0.823000014       1.52381588E-07
  0.824000001       1.37499171E-07
  0.824999988       1.16382665E-07
  0.825999975       8.84037092E-08
  0.827000022       5.31186046E-08
  0.828000009       1.03116209E-08
  0.828999996      -3.99453626E-08
  0.829999983      -9.72663088E-08
  0.830999970      -1.60923051E-07
  0.832000017      -2.29834626E-07
  0.833000004      -3.02581412E-07
  0.833999991      -3.77439363E-07
  0.834999979      -4.52396137E-07
  0.836000025      -5.25246833E-07
  0.837000012      -5.93630887E-07
  0.838000000      -6.55160420E-07
  0.838999987      -7.07467848E-07
  0.839999974      -7.48339914E-07
  0.841000021      -7.75803699E-07
  0.842000008      -7.88212219E-07
  0.842999995      -7.84346923E-07
  0.843999982      -7.63484309E-07
  0.845000029      -7.25439293E-07
  0.846000016      -6.70624786E-07
  0.847000003      -6.00055330E-07
  0.847999990      -5.15336637E-07
  0.848999977      -4.18636631E-07
  0.850000024      -3.12628714E-07
  0.851000011      -2.00402056E-07
  0.851999998      -8.53821760E-08
  0.852999985       2.88004891E-08
  0.853999972       1.38422749E-07
  0.855000019       2.39833611E-07
  0.856000006       3.29553217E-07