   0.00000000       0.00000000    
   1.00000005E-03   0.00000000    
   2.00000009E-03   0.00000000    
   3.00000003E-03   0.00000000    
   4.00000019E-03   0.00000000    
   4.99999989E-03   0.00000000    
   6.00000005E-03   0.00000000    
   7.00000022E-03   0.00000000    
   8.00000038E-03   0.00000000    
   8.99999961E-03   0.00000000    
   9.99999978E-03   0.00000000    
   1.09999999E-02   0.00000000    
   1.20000001E-02   0.00000000    
   1.30000003E-02   0.00000000    
   1.40000004E-02  -2.80408847E-38
   1.49999997E-02  -1.52048293E-37
   1.60000008E-02  -6.41647975E-37
   1.70000009E-02  -2.36581762E-36
   1.79999992E-02  -7.88978478E-36
   1.89999994E-02  -2.41799905E-35
   1.99999996E-02  -6.88347681E-35
   2.09999997E-02  -1.83541194E-34
   2.19999999E-02  -4.61542153E-34
   2.30000000E-02  -1.10083870E-33
   2.40000002E-02  -2.50235748E-33
   2.50000004E-02  -5.44297672E-33
   2.60000005E-02  -1.13673926E-32
   2.70000007E-02  -2.28597196E-32
   2.80000009E-02  -4.43733748E-32
   2.89999992E-02  -8.33114400E-32
   2.99999993E-02  -1.51550974E-31
   3.09999995E-02  -2.67479837E-31
   3.20000015E-02  -4.58542620E-31
   3.29999998E-02  -7.64145431E-31
   3.40000018E-02  -1.23850809E-30
   3.50000001E-02  -1.95263323E-30
   3.59999985E-02  -2.99393013E-30
   3.70000005E-02  -4.46113573E-30
   3.79999988E-02  -6.45097006E-30
   3.90000008E-02  -9.03142353E-30
   3.99999991E-02  -1.21947153E-29
   4.10000011E-02  -1.57808744E-29
   4.19999994E-02  -1.93607102E-29
   4.30000015E-02  -2.20650243E-29
   4.39999998E-02  -2.23456353E-29
   4.50000018E-02  -1.76538894E-29
   4.60000001E-02  -4.02449731E-30
   4.69999984E-02   2.44419559E-29
   4.80000004E-02   7.61945974E-29
   4.89999987E-02   1.62926921E-28
   5.00000007E-02   3.00308547E-28
   5.09999990E-02   5.08680517E-28
   5.20000011E-02   8.13599861E-28
   5.29999994E-02   1.24606859E-27
   5.40000014E-02   1.84222325E-27
   5.49999997E-02   2.64219446E-27
   5.60000017E-02   3.68777952E-27
   5.70000000E-02   5.01850736E-27
   5.79999983E-02   6.66561734E-27
   5.90000004E-02   8.64346343E-27
   5.99999987E-02   1.09378530E-26
   6.10000007E-02   1.34909189E-26
   6.19999990E-02   1.61822627E-26
   6.30000010E-02   1.88063793E-26
   6.40000030E-02   2.10467350E-26
   6.49999976E-02   2.24473868E-26
   6.59999996E-02   2.23837094E-26
   6.70000017E-02   2.00346141E-26
   6.80000037E-02   1.43596135E-26
   6.89999983E-02   4.08516473E-27
   7.00000003E-02  -1.22940983E-26
   7.10000023E-02  -3.64925267E-26
   7.19999969E-02  -7.03812209E-26
   7.29999989E-02  -1.15897866E-25
   7.40000010E-02  -1.74909802E-25
   7.50000030E-02  -2.49021571E-25
   7.59999976E-02  -3.39319619E-25
   7.69999996E-02  -4.46048728E-25
   7.80000016E-02  -5.68218384E-25
   7.90000036E-02  -7.03142342E-25
   7.99999982E-02  -8.45921187E-25
   8.10000002E-02  -9.88886251E-25
   8.20000023E-02  -1.12103307E-24
   8.29999968E-02  -1.22748492E-24
   8.39999989E-02  -1.28903866E-24
   8.50000009E-02  -1.28185963E-24
   8.60000029E-02  -1.17740458E-24
   8.69999975E-02  -9.42664130E-25
   8.79999995E-02  -5.40824991E-25
   8.90000015E-02   6.75433492E-26
   9.00000036E-02   9.22672422E-25
   9.09999982E-02   2.06305507E-24
   9.20000002E-02   3.52210499E-24
   9.30000022E-02   5.32397216E-24
   9.39999968E-02   7.47850946E-24
   9.49999988E-02   9.97544986E-24
   9.60000008E-02   1.27779240E-23
   9.70000029E-02   1.58155347E-23
   9.79999974E-02   1.89773081E-23
   9.89999995E-02   2.21049444E-23
  0.100000001       2.49869294E-23
  0.101000004       2.73541432E-23
  0.101999998       2.88777365E-23
  0.103000000       2.91701641E-23
  0.104000002       2.77902318E-23
  0.104999997       2.42531309E-23
  0.105999999       1.80463386E-23
  0.107000001       8.65218539E-24
  0.108000003      -4.42232584E-24
  0.108999997      -2.16080930E-23
  0.109999999      -4.32289434E-23
  0.111000001      -6.94496102E-23
  0.112000003      -1.00217804E-22
  0.112999998      -1.35202038E-22
  0.114000000      -1.73727846E-22
  0.115000002      -2.14715493E-22
  0.115999997      -2.56623571E-22
  0.116999999      -2.97402934E-22
  0.118000001      -3.34466977E-22
  0.119000003      -3.64684111E-22
  0.119999997      -3.84398818E-22
  0.120999999      -3.89488069E-22
  0.122000001      -3.75458916E-22
  0.123000003      -3.37592961E-22
  0.123999998      -2.71141540E-22
  0.125000000      -1.71574268E-22
  0.126000002      -3.48807155E-23
  0.127000004       1.42077686E-22
  0.128000006       3.61172178E-22
  0.128999993       6.22577912E-22
  0.129999995       9.24326877E-22
  0.130999997       1.26186211E-21
  0.131999999       1.62761720E-21
  0.133000001       2.01064908E-21
  0.134000003       2.39635718E-21
  0.135000005       2.76632360E-21
  0.136000007       3.09831081E-21
  0.136999995       3.36645606E-21
  0.137999997       3.54169537E-21
  0.138999999       3.59245065E-21
  0.140000001       3.48560420E-21
  0.141000003       3.18777414E-21
  0.142000005       2.66689956E-21
  0.143000007       1.89411839E-21
  0.143999994       8.45912689E-22
  0.144999996      -4.93530012E-22
  0.145999998      -2.12980610E-21
  0.147000000      -4.05573278E-21
  0.148000002      -6.24884385E-21
  0.149000004      -8.66908223E-21
  0.150000006      -1.12568449E-20
  0.150999993      -1.39315455E-20
  0.151999995      -1.65908859E-20
  0.152999997      -1.91109951E-20
  0.153999999      -2.13476317E-20
  0.155000001      -2.31386037E-20
  0.156000003      -2.43075279E-20
  0.157000005      -2.46690268E-20
  0.158000007      -2.40354032E-20
  0.158999994      -2.22247759E-20
  0.159999996      -1.90705666E-20
  0.160999998      -1.44321723E-20
  0.162000000      -8.20655014E-21
  0.163000003      -3.40332770E-22
  0.164000005       9.15795809E-21
  0.165000007       2.02061725E-20
  0.165999994       3.26378877E-20
  0.166999996       4.61935653E-20
  0.167999998       6.05142395E-20
  0.169000000       7.51385019E-20
  0.170000002       8.95035466E-20
  0.171000004       1.02950944E-19
  0.172000006       1.14737732E-19
  0.172999993       1.24053349E-19
  0.173999995       1.30042576E-19
  0.174999997       1.31834663E-19
  0.175999999       1.28578350E-19
  0.177000001       1.19482220E-19
  0.178000003       1.03859563E-19
  0.179000005       8.11765714E-20
  0.180000007       5.11022037E-20
  0.180999994       1.35578651E-20
  0.181999996      -3.12353513E-20
  0.182999998      -8.27143454E-20
  0.184000000      -1.39939301E-19
  0.185000002      -2.01569465E-19
  0.186000004      -2.65852049E-19
  0.187000006      -3.30627064E-19
  0.187999994      -3.93350386E-19
  0.188999996      -4.51137172E-19
  0.189999998      -5.00826790E-19
  0.191000000      -5.39070193E-19
  0.192000002      -5.62439441E-19
  0.193000004      -5.67557983E-19
  0.194000006      -5.51249911E-19
  0.194999993      -5.10703895E-19
  0.195999995      -4.43648240E-19
  0.196999997      -3.48530044E-19
  0.197999999      -2.24692472E-19
  0.199000001      -7.25417816E-20
  0.200000003       1.06304645E-19
  0.201000005       3.08897985E-19
  0.202000007       5.30875056E-19
  0.202999994       7.66421922E-19
  0.203999996       1.00829212E-18
  0.204999998       1.24788736E-18
  0.206000000       1.47540639E-18
  0.207000002       1.68006545E-18
  0.208000004       1.85039248E-18
  0.209000006       1.97459179E-18
  0.209999993       2.04097614E-18
  0.210999995       2.03845717E-18
  0.211999997       1.95708162E-18
  0.213000000       1.78859775E-18
  0.214000002       1.52703331E-18
  0.215000004       1.16926240E-18
  0.216000006       7.15536355E-19
  0.216999993       1.69951184E-19
  0.217999995      -4.59175661E-19
  0.218999997      -1.15904796E-18
  0.219999999      -1.91227904E-18
  0.221000001      -2.69695166E-18
  0.222000003      -3.48686862E-18
  0.223000005      -4.25201151E-18
  0.224000007      -4.95921454E-18
  0.224999994      -5.57305783E-18
  0.225999996      -6.05697131E-18
  0.226999998      -6.37453215E-18
  0.228000000      -6.49093011E-18
  0.229000002      -6.37456358E-18
  0.230000004      -5.99871546E-18
  0.231000006      -5.34325795E-18
  0.231999993      -4.39631524E-18
  0.232999995      -3.15581687E-18
  0.233999997      -1.63086082E-18
  0.234999999       1.57189959E-19
  0.236000001       2.17395535E-18
  0.237000003       4.37170537E-18
  0.238000005       6.68951053E-18
  0.238999993       9.05393600E-18
  0.239999995       1.13803112E-17
  0.240999997       1.35746030E-17
  0.241999999       1.55358912E-17
  0.243000001       1.71594184E-17
  0.244000003       1.83401757E-17
  0.245000005       1.89769394E-17
  0.246000007       1.89766449E-17
  0.246999994       1.82589929E-17
  0.247999996       1.67611194E-17
  0.248999998       1.44421467E-17
  0.250000000       1.12874370E-17
  0.250999987       7.31234775E-18
  0.252000004       2.56527382E-18
  0.252999991      -2.87021912E-18
  0.254000008      -8.87436088E-18
  0.254999995      -1.52914080E-17
  0.256000012      -2.19312828E-17
  0.256999999      -2.85727176E-17
  0.257999986      -3.49679553E-17
  0.259000003      -4.08490010E-17
  0.259999990      -4.59353644E-17
  0.261000007      -4.99431636E-17
  0.261999995      -5.25954057E-17
  0.263000011      -5.36331700E-17
  0.263999999      -5.28273670E-17
  0.264999986      -4.99906967E-17
  0.266000003      -4.49893940E-17
  0.266999990      -3.77542569E-17
  0.268000007      -2.82904703E-17
  0.268999994      -1.66857583E-17
  0.270000011      -3.11632189E-18
  0.270999998       1.21498497E-17
  0.272000015       2.87527319E-17
  0.273000002       4.62434031E-17
  0.273999989       6.40908141E-17
  0.275000006       8.16923242E-17
  0.275999993       9.83880120E-17
  0.277000010       1.13478579E-16
  0.277999997       1.26246634E-16
  0.279000014       1.35980830E-16
  0.280000001       1.42002321E-16
  0.280999988       1.43692800E-16
  0.282000005       1.40523150E-16
  0.282999992       1.32081858E-16
  0.284000009       1.18102042E-16
  0.284999996       9.84859171E-17
  0.286000013       7.33256636E-17
  0.287000000       4.29194969E-17
  0.287999988       7.78189848E-18
  0.289000005      -3.13529212E-17
  0.289999992      -7.35351388E-17
  0.291000009      -1.17611570E-16
  0.291999996      -1.62246435E-16
  0.293000013      -2.05950675E-16
  0.294000000      -2.47119533E-16
  0.294999987      -2.84078016E-16
  0.296000004      -3.15133076E-16
  0.296999991      -3.38631332E-16
  0.298000008      -3.53021151E-16
  0.298999995      -3.56916602E-16
  0.300000012      -3.49161804E-16
  0.300999999      -3.28892941E-16
  0.301999986      -2.95595864E-16
  0.303000003      -2.49156515E-16
  0.303999990      -1.89902087E-16
  0.305000007      -1.18630313E-16
  0.305999994      -3.66248808E-17
  0.307000011       5.43446942E-17
  0.307999998       1.52040217E-16
  0.308999985       2.53789891E-16
  0.310000002       3.56541552E-16
  0.310999990       4.56933776E-16
  0.312000006       5.51384303E-16
  0.312999994       6.36193265E-16
  0.314000010       7.07659870E-16
  0.314999998       7.62209109E-16
  0.316000015       7.96524955E-16
  0.317000002       8.07685779E-16
  0.317999989       7.93297865E-16
  0.319000006       7.51622150E-16
  0.319999993       6.81688781E-16
  0.321000010       5.83395213E-16
  0.321999997       4.57582286E-16
  0.323000014       3.06084805E-16
  0.324000001       1.31751832E-16
  0.324999988      -6.15656104E-17
  0.326000005      -2.69062186E-16
  0.326999992      -4.85062099E-16
  0.328000009      -7.03139467E-16
  0.328999996      -9.16273761E-16
  0.330000013      -1.11703751E-15
  0.331000000      -1.29781319E-15
  0.331999987      -1.45103340E-15
  0.333000004      -1.56943802E-15
  0.333999991      -1.64634162E-15
  0.335000008      -1.67590170E-15
  0.335999995      -1.65338015E-15
  0.337000012      -1.57538716E-15
  0.338000000      -1.44009895E-15
  0.338999987      -1.24743919E-15
  0.340000004      -9.99216816E-16
  0.340999991      -6.99210134E-16
  0.342000008      -3.53192278E-16
  0.342999995       3.11080261E-17
  0.344000012       4.44113774E-16
  0.344999999       8.74576235E-16
  0.345999986       1.30982020E-15
  0.347000003       1.73605448E-15
  0.347999990       2.13874167E-15
  0.349000007       2.50302090E-15
  0.349999994       2.81416998E-15
  0.351000011       3.05809853E-15
  0.351999998       3.22185414E-15
  0.352999985       3.29412934E-15
  0.354000002       3.26574950E-15
  0.354999989       3.13012555E-15
  0.356000006       2.88365591E-15
  0.356999993       2.52605723E-15
  0.358000010       2.06061220E-15
  0.358999997       1.49431763E-15
  0.360000014       8.37921784E-16
  0.361000001       1.05843583E-16
  0.361999989      -6.84032733E-16
  0.363000005      -1.51068983E-15
  0.363999993      -2.35043278E-15
  0.365000010      -3.17746241E-15
  0.365999997      -3.96455507E-15
  0.367000014      -4.68383428E-15
  0.368000001      -5.30761644E-15
  0.368999988      -5.80930559E-15
  0.370000005      -6.16431319E-15
  0.370999992      -6.35097808E-15
  0.372000009      -6.35145030E-15
  0.372999996      -6.15251572E-15
  0.374000013      -5.74632361E-15
  0.375000000      -5.13099695E-15
  0.375999987      -4.31108896E-15
  0.377000004      -3.29786793E-15
  0.377999991      -2.10940914E-15
  0.379000008      -7.70475833E-16
  0.379999995       6.87814258E-16
  0.381000012       2.22854644E-15
  0.381999999       3.80978310E-15
  0.382999986       5.38554390E-15
  0.384000003       6.90697262E-15
  0.384999990       8.32367249E-15
  0.386000007       9.58516459E-15
  0.386999995       1.06424506E-14
  0.388000011       1.14496162E-14
  0.388999999       1.19654441E-14
  0.389999986       1.21549795E-14
  0.391000003       1.19909974E-14
  0.391999990       1.14553202E-14
  0.393000007       1.05399342E-14
  0.393999994       9.24786591E-15
  0.395000011       7.59376557E-15
  0.395999998       5.60417030E-15
  0.397000015       3.31741724E-15
  0.398000002       7.83190856E-16
  0.398999989      -1.93830573E-15
  0.400000006      -4.77755127E-15
  0.400999993      -7.65726085E-15
  0.402000010      -1.04942681E-14
  0.402999997      -1.32016997E-14
  0.404000014      -1.56913853E-14
  0.405000001      -1.78764508E-14
  0.405999988      -1.96740122E-14
  0.407000005      -2.10079146E-14
  0.407999992      -2.18114169E-14
  0.409000009      -2.20297379E-14
  0.409999996      -2.16223896E-14
  0.411000013      -2.05652078E-14
  0.412000000      -1.88520023E-14
  0.412999988      -1.64957464E-14
  0.414000005      -1.35292592E-14
  0.414999992      -1.00053226E-14
  0.416000009      -5.99619960E-15
  0.416999996      -1.59253438E-15
  0.418000013       3.09836288E-15
  0.419000000       7.95482946E-15
  0.419999987       1.28437274E-14
  0.421000004       1.76238181E-14
  0.421999991       2.21495677E-14
  0.423000008       2.62752958E-14
  0.423999995       2.98595309E-14
  0.425000012       3.27694957E-14
  0.425999999       3.48855466E-14
  0.426999986       3.61054706E-14
  0.428000003       3.63484538E-14
  0.428999990       3.55586498E-14
  0.430000007       3.37081369E-14
  0.430999994       3.07992056E-14
  0.432000011       2.68658505E-14
  0.432999998       2.19743589E-14
  0.433999985       1.62229645E-14
  0.435000002       9.74049519E-15
  0.435999990       2.68403184E-15
  0.437000006      -4.76442226E-15
  0.437999994      -1.24022064E-14
  0.439000010      -2.00111161E-14
  0.439999998      -2.73632537E-14
  0.441000015      -3.42274799E-14
  0.442000002      -4.03762886E-14
  0.442999989      -4.55929375E-14
  0.444000006      -4.96785874E-14
  0.444999993      -5.24592881E-14
  0.446000010      -5.37925248E-14
  0.446999997      -5.35731602E-14
  0.448000014      -5.17384936E-14
  0.449000001      -4.82722992E-14
  0.449999988      -4.32076284E-14
  0.451000005      -3.66282051E-14
  0.451999992      -2.86683688E-14
  0.453000009      -1.95114022E-14
  0.453999996      -9.38628803E-15
  0.455000013       1.43713168E-15
  0.456000000       1.26545071E-14
  0.456999987       2.39347303E-14
  0.458000004       3.49289079E-14
  0.458999991       4.52803485E-14
  0.460000008       5.46353022E-14
  0.460999995       6.26541462E-14
  0.462000012       6.90227023E-14
  0.463000000       7.34633437E-14
  0.463999987       7.57455215E-14
  0.465000004       7.56953297E-14
  0.465999991       7.32038264E-14
  0.467000008       6.82337081E-14
  0.467999995       6.08241078E-14
  0.469000012       5.10932171E-14
  0.469999999       3.92385709E-14
  0.470999986       2.55348704E-14
  0.472000003       1.03292432E-14
  0.472999990      -5.96598508E-15
  0.474000007      -2.28829457E-14
  0.474999994      -3.99101223E-14
  0.476000011      -5.65062286E-14
  0.476999998      -7.21157143E-14
  0.477999985      -8.61855211E-14
  0.479000002      -9.81826179E-14
  0.479999989      -1.07611802E-13
  0.481000006      -1.14033200E-13
  0.481999993      -1.17078968E-13
  0.483000010      -1.16468535E-13
  0.483999997      -1.12021876E-13
  0.485000014      -1.03670409E-13
  0.486000001      -9.14648335E-14
  0.486999989      -7.55796860E-14
  0.488000005      -5.63142672E-14
  0.488999993      -3.40896812E-14
  0.490000010      -9.44196605E-15
  0.490999997       1.69887433E-14
  0.492000014       4.44728110E-14
  0.493000001       7.22092132E-14
  0.493999988       9.93467868E-14
  0.495000005       1.25008036E-13
  0.495999992       1.48314995E-13
  0.497000009       1.68416293E-13
  0.497999996       1.84514811E-13
  0.499000013       1.95894855E-13
  0.500000000       2.01948294E-13
  0.500999987       2.02198487E-13
  0.501999974       1.96321407E-13
  0.503000021       1.84162947E-13
  0.504000008       1.65751947E-13
  0.504999995       1.41308121E-13
  0.505999982       1.11244503E-13
  0.507000029       7.61641320E-14
  0.508000016       3.68507376E-14
  0.509000003      -5.74653748E-15
  0.509999990      -5.05341245E-14
  0.510999978      -9.63003684E-14
  0.512000024      -1.41746627E-13
  0.513000011      -1.85522428E-13
  0.513999999      -2.26263642E-13
  0.514999986      -2.62632825E-13
  0.515999973      -2.93360442E-13
  0.517000020      -3.17285748E-13
  0.518000007      -3.33396180E-13
  0.518999994      -3.40863785E-13
  0.519999981      -3.39077806E-13
  0.521000028      -3.27671809E-13
  0.522000015      -3.06544720E-13
  0.523000002      -2.75874646E-13
  0.523999989      -2.36125003E-13
  0.524999976      -1.88042019E-13
  0.526000023      -1.32644058E-13
  0.527000010      -7.12021316E-14
  0.527999997      -5.21220962E-15
  0.528999984       6.36402077E-14
  0.529999971       1.33522506E-13
  0.531000018       2.02503270E-13
  0.532000005       2.68605261E-13
  0.532999992       3.29861735E-13
  0.533999979       3.84374282E-13
  0.535000026       4.30370637E-13
  0.536000013       4.66260927E-13
  0.537000000       4.90690117E-13
  0.537999988       5.02585441E-13
  0.538999975       5.01196903E-13
  0.540000021       4.86129745E-13
  0.541000009       4.57367163E-13
  0.541999996       4.15282744E-13
  0.542999983       3.60641909E-13
  0.544000030       2.94591527E-13
  0.545000017       2.18638299E-13
  0.546000004       1.34615626E-13
  0.546999991       4.46401508E-14
  0.547999978      -4.89414282E-14
  0.549000025      -1.43613772E-13
  0.550000012      -2.36760915E-13
  0.550999999      -3.25739246E-13
  0.551999986      -4.07953212E-13
  0.552999973      -4.80931484E-13
  0.554000020      -5.42401790E-13
  0.555000007      -5.90361635E-13
  0.555999994      -6.23142976E-13
  0.556999981      -6.39469001E-13
  0.558000028      -6.38500483E-13
  0.559000015      -6.19870854E-13
  0.560000002      -5.83708104E-13
  0.560999990      -5.30643021E-13
  0.561999977      -4.61802797E-13
  0.563000023      -3.78790288E-13
  0.564000010      -2.83648539E-13
  0.564999998      -1.78812179E-13
  0.565999985      -6.70461611E-14
  0.566999972       4.86264031E-14
  0.568000019       1.65005420E-13
  0.569000006       2.78801938E-13
  0.569999993       3.86730578E-13
  0.570999980       4.85603853E-13
  0.572000027       5.72425787E-13
  0.573000014       6.44481538E-13
  0.574000001       6.99420936E-13
  0.574999988       7.35333615E-13
  0.575999975       7.50812227E-13
  0.577000022       7.45003072E-13
  0.578000009       7.17641712E-13
  0.578999996       6.69072274E-13
  0.579999983       6.00249776E-13
  0.580999970       5.12725442E-13
  0.582000017       4.08614169E-13
  0.583000004       2.90545962E-13
  0.583999991       1.61601513E-13
  0.584999979       2.52338603E-14
  0.586000025      -1.14821740E-13
  0.587000012      -2.54647676E-13
  0.588000000      -3.90250603E-13
  0.588999987      -5.17672385E-13
  0.589999974      -6.33101807E-13
  0.591000021      -7.32984040E-13
  0.592000008      -8.14125243E-13
  0.592999995      -8.73788672E-13
  0.593999982      -9.09780064E-13
  0.595000029      -9.20518761E-13
  0.596000016      -9.05094359E-13
  0.597000003      -8.63304816E-13
  0.597999990      -7.95675862E-13
  0.598999977      -7.03461378E-13
  0.600000024      -5.88623280E-13
  0.601000011      -4.53791952E-13
  0.601999998      -3.02207830E-13
  0.602999985      -1.37645280E-13
  0.603999972       3.56791724E-14
  0.605000019       2.13212301E-13
  0.606000006       3.90180455E-13
  0.606999993       5.61713978E-13
  0.607999980       7.22976149E-13
  0.609000027       8.69293895E-13
  0.610000014       9.96286387E-13
  0.611000001       1.09998783E-12
  0.611999989       1.17696250E-12
  0.612999976       1.22440675E-12
  0.614000022       1.24023719E-12
  0.615000010       1.22316090E-12
  0.615999997       1.17272728E-12
  0.616999984       1.08935777E-12
  0.617999971       9.74353953E-13
  0.619000018       8.29883254E-13
  0.620000005       6.58941163E-13
  0.620999992       4.65292247E-13
  0.621999979       2.53389161E-13
  0.623000026       2.82727993E-14
  0.624000013      -2.04544714E-13
  0.625000000      -4.39211764E-13
  0.625999987      -6.69680511E-13
  0.626999974      -8.89858120E-13
  0.628000021      -1.09376245E-12
  0.629000008      -1.27567846E-12
  0.629999995      -1.43031160E-12
  0.630999982      -1.55293313E-12
  0.632000029      -1.63951556E-12
  0.633000016      -1.68685248E-12
  0.634000003      -1.69266120E-12
  0.634999990      -1.65566378E-12
  0.635999978      -1.57564478E-12
  0.637000024      -1.45348403E-12
  0.638000011      -1.29116151E-12
  0.638999999      -1.09173543E-12
  0.639999986      -8.59291533E-13
  0.640999973      -5.98866117E-13
  0.642000020      -3.16341842E-13
  0.643000007      -1.83202147E-14
  0.643999994       2.88028119E-13
  0.644999981       5.95131420E-13
  0.646000028       8.95199496E-13
  0.647000015       1.18041720E-12
  0.648000002       1.44314378E-12
  0.648999989       1.67611324E-12
  0.649999976       1.87263096E-12
  0.651000023       2.02676049E-12
  0.652000010       2.13349759E-12
  0.652999997       2.18892417E-12
  0.653999984       2.19033927E-12
  0.654999971       2.13636205E-12
  0.656000018       2.02700335E-12
  0.657000005       1.86370472E-12
  0.657999992       1.64934039E-12
  0.658999979       1.38818145E-12
  0.660000026       1.08582392E-12
  0.661000013       7.49079564E-13
  0.662000000       3.85831314E-13
  0.662999988       4.85677088E-15
  0.663999975      -3.84377236E-13
  0.665000021      -7.71944303E-13
  0.666000009      -1.14770725E-12
  0.666999996      -1.50157946E-12
  0.667999983      -1.82379329E-12
  0.669000030      -2.10516739E-12
  0.670000017      -2.33736641E-12
  0.671000004      -2.51314572E-12
  0.671999991      -2.62657517E-12
  0.672999978      -2.67323208E-12
  0.674000025      -2.65036170E-12
  0.675000012      -2.55699606E-12
  0.675999999      -2.39402812E-12
  0.676999986      -2.16423776E-12
  0.677999973      -1.87226862E-12
  0.679000020      -1.52455154E-12
  0.680000007      -1.12917878E-12
  0.680999994      -6.95728685E-13
  0.681999981      -2.35045111E-13
  0.683000028       2.41024458E-13
  0.684000015       7.19925259E-13
  0.685000002       1.18871948E-12
  0.685999990       1.63443022E-12
  0.686999977       2.04439569E-12
  0.688000023       2.40662481E-12
  0.689000010       2.71014374E-12
  0.689999998       2.94532389E-12
  0.690999985       3.10418097E-12
  0.691999972       3.18063783E-12
  0.693000019       3.17073928E-12
  0.694000006       3.07281566E-12
  0.694999993       2.88758557E-12
  0.695999980       2.61819559E-12
  0.697000027       2.27019271E-12
  0.698000014       1.85142938E-12
  0.699000001       1.37190183E-12
  0.699999988       8.43524198E-13
  0.700999975       2.79843341E-13
  0.702000022      -3.04299365E-13
  0.703000009      -8.93150517E-13
  0.703999996      -1.47046221E-12
  0.704999983      -2.01993370E-12
  0.705999970      -2.52566501E-12
  0.707000017      -2.97260957E-12
  0.708000004      -3.34701494E-12
  0.708999991      -3.63683584E-12
  0.709999979      -3.83210954E-12
  0.711000025      -3.92528154E-12
  0.712000012      -3.91147054E-12
  0.713000000      -3.78866339E-12
  0.713999987      -3.55783588E-12
  0.714999974      -3.22298915E-12
  0.716000021      -2.79110480E-12
  0.717000008      -2.27201222E-12
  0.717999995      -1.67817518E-12
  0.718999982      -1.02439877E-12
  0.720000029      -3.27464266E-13
  0.721000016       3.94298770E-13
  0.722000003       1.12149331E-12
  0.722999990       1.83417517E-12
  0.723999977       2.51239936E-12
  0.725000024       3.13677708E-12
  0.726000011       3.68902912E-12
  0.726999998       4.15251687E-12
  0.727999985       4.51274131E-12
  0.728999972       4.75778705E-12
  0.730000019       4.87870551E-12
  0.731000006       4.86982156E-12
  0.731999993       4.72895334E-12
  0.732999980       4.45753850E-12
  0.734000027       4.06066283E-12
  0.735000014       3.54698541E-12
  0.736000001       2.92856277E-12
  0.736999989       2.22057659E-12
  0.737999976       1.44096714E-12
  0.739000022       6.09984448E-13
  0.740000010      -2.50332876E-13
  0.740999997      -1.11673843E-12
  0.741999984      -1.96540180E-12
  0.742999971      -2.77255974E-12
  0.744000018      -3.51517643E-12
  0.745000005      -4.17159493E-12
  0.745999992      -4.72216016E-12
  0.746999979      -5.14979856E-12
  0.748000026      -5.44053474E-12
  0.749000013      -5.58393132E-12
  0.750000000      -5.57343798E-12
  0.750999987      -5.40663738E-12
  0.751999974      -5.08538480E-12
  0.753000021      -4.61582725E-12
  0.754000008      -4.00830844E-12
  0.754999995      -3.27715502E-12
  0.755999982      -2.44035066E-12
  0.757000029      -1.51910364E-12
  0.758000016      -5.37319592E-13
  0.759000003       4.79007459E-13
  0.759999990       1.50247165E-12
  0.760999978       2.50498060E-12
  0.762000024       3.45851060E-12
  0.763000011       4.33587151E-12
  0.763999999       5.11146203E-12
  0.764999986       5.76199114E-12
  0.765999973       6.26715043E-12
  0.767000020       6.61021324E-12
  0.768000007       6.77854691E-12
  0.768999994       6.76402337E-12
  0.769999981       6.56331023E-12
  0.771000028       6.17804202E-12
  0.772000015       5.61485363E-12
  0.773000002       4.88528532E-12
  0.773999989       4.00555197E-12
  0.774999976       2.99618164E-12
  0.776000023       1.88153464E-12
  0.777000010       6.89213172E-13
  0.777999997      -5.50625843E-13
  0.778999984      -1.80603514E-12
  0.779999971      -3.04410121E-12
  0.781000018      -4.23180544E-12
  0.782000005      -5.33690106E-12
  0.782999992      -6.32878082E-12
  0.783999979      -7.17931357E-12
  0.785000026      -7.86362815E-12
  0.786000013      -8.36081811E-12
  0.787000000      -8.65455624E-12
  0.787999988      -8.73358937E-12
  0.788999975      -8.59210880E-12
  0.790000021      -8.22998353E-12
  0.791000009      -7.65284364E-12
  0.791999996      -6.87201077E-12
  0.792999983      -5.90428184E-12
  0.794000030      -4.77156162E-12
  0.795000017      -3.50035691E-12
  0.796000004      -2.12114484E-12
  0.796999991      -6.67626707E-13
  0.797999978       8.24112046E-13
  0.799000025       2.31651352E-12
  0.800000012       3.77150915E-12
  0.800999999       5.15150683E-12
  0.801999986       6.42037335E-12
  0.802999973       7.54439393E-12
  0.804000020       8.49317665E-12
  0.805000007       9.24047644E-12
  0.805999994       9.76492325E-12
  0.806999981       1.00506244E-11
  0.808000028       1.00876339E-11
  0.809000015       9.87226707E-12
  0.810000002       9.40725275E-12
  0.810999990       8.70172163E-12
  0.811999977       7.77102081E-12
  0.813000023       6.63636637E-12
  0.814000010       5.32433733E-12
  0.814999998       3.86622548E-12
  0.815999985       2.29725353E-12
  0.816999972       6.55684057E-13
  0.818000019      -1.01815821E-12
  0.819000006      -2.68292658E-12
  0.819999993      -4.29732682E-12
  0.820999980      -5.82119812E-12
  0.822000027      -7.21657066E-12
  0.823000014      -8.44867405E-12
  0.824000001      -9.48686615E-12
  0.824999988      -1.03054596E-11
  0.825999975      -1.08844201E-11
  0.827000022      -1.12099219E-11
  0.828000009      -1.12747416E-11
  0.828999996      -1.10784741E-11
  0.829999983      -1.06275769E-11
  0.830999970      -9.93522972E-12
  0.832000017      -9.02100877E-12
  0.833000004      -7.91039977E-12
  0.833999991      -6.63414722E-12
  0.834999979      -5.22745996E-12
  0.836000025      -3.72909863E-12
  0.837000012      -2.18036288E-12
  0.838000000      -6.24009091E-13
  0.838999987       8.96874426E-13
  0.839999974       2.34000558E-12
  0.841000021       3.66502748E-12
  0.842000008       4.83458065E-12
  0.842999995       5.81529616E-12
  0.843999982       6.57868942E-12
  0.845000029       7.10192148E-12
  0.846000016       7.36841664E-12
  0.847000003       7.36831429E-12
  0.847999990       7.09874173E-12
  0.848999977       6.56390567E-12
  0.850000024       5.77499420E-12
  0.851000011       4.74989752E-12
  0.851999998       3.51274738E-12
  0.852999985       2.09329667E-12
  0.853999972       5.26146455E-13
  0.855000019      -1.15015235E-12
  0.856000006      -2.89410228E-12