   0.00000000       0.00000000    
   1.00000005E-03   0.00000000    
   2.00000009E-03   0.00000000    
   3.00000003E-03   0.00000000    
   4.00000019E-03   0.00000000    
   4.99999989E-03   0.00000000    
   6.00000005E-03   0.00000000    
   7.00000022E-03   0.00000000    
   8.00000038E-03   0.00000000    
   8.99999961E-03   0.00000000    
   9.99999978E-03   0.00000000    
   1.09999999E-02   0.00000000    
   1.20000001E-02   0.00000000    
   1.30000003E-02   0.00000000    
   1.40000004E-02   0.00000000    
   1.49999997E-02   0.00000000    
   1.60000008E-02   0.00000000    
   1.70000009E-02   3.92766892E-38
   1.79999992E-02   2.67804481E-37
   1.89999994E-02   9.42489760E-37
   1.99999996E-02   2.63919324E-36
   2.09999997E-02   6.45086246E-36
   2.19999999E-02   1.44733789E-35
   2.30000000E-02   3.13809065E-35
   2.40000002E-02   6.12874745E-35
   2.50000004E-02   1.11926669E-34
   2.60000005E-02   1.94423689E-34
   2.70000007E-02   3.15588848E-34
   2.80000009E-02   4.81667948E-34
   2.89999992E-02   6.81441698E-34
   2.99999993E-02   8.68761314E-34
   3.09999995E-02   9.35203469E-34
   3.20000015E-02   6.54328828E-34
   3.29999998E-02  -3.88004879E-34
   3.40000018E-02  -2.89154823E-33
   3.50000001E-02  -7.95663106E-33
   3.59999985E-02  -1.72189704E-32
   3.70000005E-02  -3.29720170E-32
   3.79999988E-02  -5.82294880E-32
   3.90000008E-02  -9.66737192E-32
   3.99999991E-02  -1.52381754E-31
   4.10000011E-02  -2.29194715E-31
   4.19999994E-02  -3.29564088E-31
   4.30000015E-02  -4.52679912E-31
   4.39999998E-02  -5.91679674E-31
   4.50000018E-02  -7.29765184E-31
   4.60000001E-02  -8.35137109E-31
   4.69999984E-02  -8.54811687E-31
   4.80000004E-02  -7.07637725E-31
   4.89999987E-02  -2.77198425E-31
   5.00000007E-02   5.94220153E-31
   5.09999990E-02   2.10879248E-30
   5.20000011E-02   4.51092365E-30
   5.29999994E-02   8.07632027E-30
   5.40000014E-02   1.30883190E-29
   5.49999997E-02   1.97968476E-29
   5.60000017E-02   2.83551747E-29
   5.70000000E-02   3.87299276E-29
   5.79999983E-02   5.05810592E-29
   5.90000004E-02   6.31107141E-29
   5.99999987E-02   7.48837493E-29
   6.10000007E-02   8.36279407E-29
   6.19999990E-02   8.60292082E-29
   6.30000010E-02   7.75462271E-29
   6.40000030E-02   5.22794165E-29
   6.49999976E-02   2.94099734E-30
   6.59999996E-02  -7.90152241E-29
   6.70000017E-02  -2.03035050E-28
   6.80000037E-02  -3.78798979E-28
   6.89999983E-02  -6.15171635E-28
   7.00000003E-02  -9.18691502E-28
   7.10000023E-02  -1.29154335E-27
   7.19999969E-02  -1.72898743E-27
   7.29999989E-02  -2.21626408E-27
   7.40000010E-02  -2.72506337E-27
   7.50000030E-02  -3.20973443E-27
   7.59999976E-02  -3.60351507E-27
   7.69999996E-02  -3.81518980E-27
   7.80000016E-02  -3.72672028E-27
   7.90000036E-02  -3.19252798E-27
   7.99999982E-02  -2.04124115E-27
   8.10000002E-02  -8.08222279E-29
   8.20000023E-02   2.89195599E-27
   8.29999968E-02   7.07673251E-27
   8.39999989E-02   1.26486389E-26
   8.50000009E-02   1.97306315E-26
   8.60000029E-02   2.83588500E-26
   8.69999975E-02   3.84413552E-26
   8.79999995E-02   4.97112902E-26
   8.90000015E-02   6.16764674E-26
   9.00000036E-02   7.35684593E-26
   9.09999982E-02   8.42954515E-26
   9.20000002E-02   9.24044609E-26
   9.30000022E-02   9.60597157E-26
   9.39999968E-02   9.30452255E-26
   9.49999988E-02   8.08003909E-26
   9.60000008E-02   5.64979345E-26
   9.70000029E-02   1.71733062E-26
   9.79999974E-02  -4.00862627E-26
   9.89999995E-02  -1.17886955E-25
  0.100000001      -2.18204670E-25
  0.101000004      -3.41993759E-25
  0.101999998      -4.88735520E-25
  0.103000000      -6.55940505E-25
  0.104000002      -8.38626984E-25
  0.104999997      -1.02880764E-24
  0.105999999      -1.21502556E-24
  0.107000001      -1.38199043E-24
  0.108000003      -1.51037528E-24
  0.108999997      -1.57684006E-24
  0.109999999      -1.55435358E-24
  0.111000001      -1.41288538E-24
  0.112000003      -1.12053471E-24
  0.112999998      -6.45151748E-25
  0.114000000       4.35083413E-26
  0.115000002       9.71088169E-25
  0.115999997       2.15540840E-24
  0.116999999       3.60278929E-24
  0.118000001       5.30402778E-24
  0.119000003       7.23019734E-24
  0.119999997       9.32850424E-24
  0.120999999       1.15184831E-23
  0.122000001       1.36888887E-23
  0.123000003       1.56956672E-23
  0.123999998       1.73614591E-23
  0.125000000       1.84770677E-23
  0.126000002       1.88053522E-23
  0.127000004       1.80879447E-23
  0.128000006       1.60551385E-23
  0.128999993       1.24391627E-23
  0.129999995       6.99091216E-24
  0.130999997      -4.99988719E-25
  0.131999999      -1.01821496E-23
  0.133000001      -2.21170565E-23
  0.134000003      -3.62523175E-23
  0.135000005      -5.23947340E-23
  0.136000007      -7.01848096E-23
  0.136999995      -8.90744500E-23
  0.137999997      -1.08309996E-22
  0.138999999      -1.26922835E-22
  0.140000001      -1.43729826E-22
  0.141000003      -1.57345918E-22
  0.142000005      -1.66210998E-22
  0.143000007      -1.68632637E-22
  0.143999994      -1.62846008E-22
  0.144999996      -1.47091408E-22
  0.145999998      -1.19708999E-22
  0.147000000      -7.92492821E-23
  0.148000002      -2.45966862E-23
  0.149000004       4.48976903E-23
  0.150000006       1.29279320E-22
  0.150999993       2.27856023E-22
  0.151999995       3.39073849E-22
  0.152999997       4.60411536E-22
  0.153999999       5.88302878E-22
  0.155000001       7.18096371E-22
  0.156000003       8.44061075E-22
  0.157000005       9.59447419E-22
  0.158000007       1.05660994E-21
  0.158999994       1.12719625E-21
  0.159999996       1.16240555E-21
  0.160999998       1.15331495E-21
  0.162000000       1.09126953E-21
  0.163000003       9.68327291E-22
  0.164000005       7.77745666E-22
  0.165000007       5.14493265E-22
  0.165999994       1.75765341E-22
  0.166999996      -2.38521397E-22
  0.167999998      -7.25281291E-22
  0.169000000      -1.27788802E-21
  0.170000002      -1.88590596E-21
  0.171000004      -2.53495315E-21
  0.172000006      -3.20671650E-21
  0.172999993      -3.87913982E-21
  0.173999995      -4.52679356E-21
  0.174999997      -5.12143181E-21
  0.175999999      -5.63272637E-21
  0.177000001      -6.02916358E-21
  0.178000003      -6.27907310E-21
  0.179000005      -6.35175311E-21
  0.180000007      -6.21864247E-21
  0.180999994      -5.85448388E-21
  0.181999996      -5.23842254E-21
  0.182999998      -4.35497749E-21
  0.184000000      -3.19483224E-21
  0.185000002      -1.75539277E-21
  0.186000004      -4.10837750E-23
  0.187000006       1.93664024E-21
  0.187999994       4.15955768E-21
  0.188999996       6.60318977E-21
  0.189999998       9.23749749E-21
  0.191000000       1.20276787E-20
  0.192000002       1.49349528E-20
  0.193000004       1.79172006E-20
  0.194000006       2.09293045E-20
  0.194999993       2.39230391E-20
  0.195999995       2.68463681E-20
  0.196999997       2.96420140E-20
  0.197999999       3.22452128E-20
  0.199000001       3.45806539E-20
  0.200000003       3.65586075E-20
  0.201000005       3.80704158E-20
  0.202000007       3.89835682E-20
  0.202999994       3.91367324E-20
  0.203999996       3.83352170E-20
  0.204999998       3.63474729E-20
  0.206000000       3.29033254E-20
  0.207000002       2.76947339E-20
  0.208000004       2.03799225E-20
  0.209000006       1.05916915E-20
  0.209999993      -2.04924707E-21
  0.210999995      -1.79152780E-20
  0.211999997      -3.73467135E-20
  0.213000000      -6.06202737E-20
  0.214000002      -8.79113144E-20
  0.215000004      -1.19250403E-19
  0.216000006      -1.54475294E-19
  0.216999993      -1.93180006E-19
  0.217999995      -2.34663178E-19
  0.218999997      -2.77878583E-19
  0.219999999      -3.21391333E-19
  0.221000001      -3.63343608E-19
  0.222000003      -4.01434448E-19
  0.223000005      -4.32918260E-19
  0.224000007      -4.54626840E-19
  0.224999994      -4.63019363E-19
  0.225999996      -4.54264793E-19
  0.226999998      -4.24359629E-19
  0.228000000      -3.69283592E-19
  0.229000002      -2.85193755E-19
  0.230000004      -1.68655949E-19
  0.231000006      -1.69102342E-20
  0.231999993       1.71835579E-19
  0.232999995       3.98092871E-19
  0.233999997       6.60770898E-19
  0.234999999       9.56861439E-19
  0.236000001       1.28114664E-18
  0.237000003       1.62594850E-18
  0.238000005       1.98094206E-18
  0.238999993       2.33305361E-18
  0.239999995       2.66646716E-18
  0.240999997       2.96276098E-18
  0.241999999       3.20119393E-18
  0.243000001       3.35915834E-18
  0.244000003       3.41281072E-18
  0.245000005       3.33788718E-18
  0.246000007       3.11070100E-18
  0.246999994       2.70931078E-18
  0.247999996       2.11484026E-18
  0.248999998       1.31291637E-18
  0.250000000       2.95182245E-19
  0.250999987      -9.39167736E-19
  0.252000004      -2.38189759E-18
  0.252999991      -4.01435838E-18
  0.254000008      -5.80632152E-18
  0.254999995      -7.71510282E-18
  0.256000012      -9.68506654E-18
  0.256999999      -1.16476088E-17
  0.257999986      -1.35216932E-17
  0.259000003      -1.52150212E-17
  0.259999990      -1.66258919E-17
  0.261000007      -1.76457940E-17
  0.261999995      -1.81627372E-17
  0.263000011      -1.80653069E-17
  0.263999999      -1.72473957E-17
  0.264999986      -1.56135105E-17
  0.266000003      -1.30845340E-17
  0.266999990      -9.60376626E-18
  0.268000007      -5.14303516E-18
  0.268999994       2.91371062E-19
  0.270000011       6.65322708E-18
  0.270999998       1.38516563E-17
  0.272000015       2.17474932E-17
  0.273000002       3.01510477E-17
  0.273999989       3.88215813E-17
  0.275000006       4.74687852E-17
  0.275999993       5.57565195E-17
  0.277000010       6.33089696E-17
  0.277999997       6.97193745E-17
  0.279000014       7.45613391E-17
  0.280000001       7.74026582E-17
  0.280999988       7.78214630E-17
  0.282000005       7.54243664E-17
  0.282999992       6.98661627E-17
  0.284000009       6.08705272E-17
  0.284999996       4.82510466E-17
  0.286000013       3.19316863E-17
  0.287000000       1.19659203E-17
  0.287999988      -1.14465435E-17
  0.289000005      -3.79463746E-17
  0.289999992      -6.70055935E-17
  0.291000009      -9.79238975E-17
  0.291999996      -1.29831159E-16
  0.293000013      -1.61696896E-16
  0.294000000      -1.92347233E-16
  0.294999987      -2.20489797E-16
  0.296000004      -2.44746464E-16
  0.296999991      -2.63693850E-16
  0.298000008      -2.75910951E-16
  0.298999995      -2.80032930E-16
  0.300000012      -2.74809887E-16
  0.300999999      -2.59168868E-16
  0.301999986      -2.32277081E-16
  0.303000003      -1.93604163E-16
  0.303999990      -1.42980935E-16
  0.305000007      -8.06517906E-17
  0.305999994      -7.31809997E-18
  0.307000011       7.58301945E-17
  0.307999998       1.67097538E-16
  0.308999985       2.64282618E-16
  0.310000002       3.64697103E-16
  0.310999990       4.65204894E-16
  0.312000006       5.62282970E-16
  0.312999994       6.52103561E-16
  0.314000010       7.30637597E-16
  0.314999998       7.93777815E-16
  0.316000015       8.37478733E-16
  0.317000002       8.57910756E-16
  0.317999989       8.51623813E-16
  0.319000006       8.15715439E-16
  0.319999993       7.47997802E-16
  0.321000010       6.47156889E-16
  0.321999997       5.12897190E-16
  0.323000014       3.46064999E-16
  0.324000001       1.48743327E-16
  0.324999988      -7.56882172E-17
  0.326000005      -3.22534423E-16
  0.326999992      -5.85811374E-16
  0.328000009      -8.58323314E-16
  0.328999996      -1.13179134E-15
  0.330000013      -1.39703473E-15
  0.331000000      -1.64420382E-15
  0.331999987      -1.86306040E-15
  0.333000004      -2.04330054E-15
  0.333999991      -2.17491273E-15
  0.335000008      -2.24855928E-15
  0.335999995      -2.25597209E-15
  0.337000012      -2.19034822E-15
  0.338000000      -2.04673060E-15
  0.338999987      -1.82235878E-15
  0.340000004      -1.51697301E-15
  0.340999991      -1.13305872E-15
  0.342000008      -6.76013925E-16
  0.342999995      -1.54228341E-16
  0.344000012       4.20937735E-16
  0.344999999       1.03528263E-15
  0.345999986       1.67200577E-15
  0.347000003       2.31206367E-15
  0.347999990       2.93463818E-15
  0.349000007       3.51770750E-15
  0.349999994       4.03870900E-15
  0.351000011       4.47527994E-15
  0.351999998       4.80604716E-15
  0.352999985       5.01145349E-15
  0.354000002       5.07458328E-15
  0.354999989       4.98196108E-15
  0.356000006       4.72429196E-15
  0.356999993       4.29711207E-15
  0.358000010       3.70131714E-15
  0.358999997       2.94354092E-15
  0.360000014       2.03635763E-15
  0.361000001       9.98288468E-16
  0.361999989      -1.46403875E-16
  0.363000005      -1.36814149E-15
  0.363999993      -2.63267771E-15
  0.365000010      -3.90195680E-15
  0.365999997      -5.13517155E-15
  0.367000014      -6.28999382E-15
  0.368000001      -7.32394407E-15
  0.368999988      -8.19585946E-15
  0.370000005      -8.86741428E-15
  0.370999992      -9.30463744E-15
  0.372000009      -9.47937441E-15
  0.372999996      -9.37063317E-15
  0.374000013      -8.96575566E-15
  0.375000000      -8.26135967E-15
  0.375999987      -7.26400463E-15
  0.377000004      -5.99053464E-15
  0.377999991      -4.46806449E-15
  0.379000008      -2.73359280E-15
  0.379999995      -8.33226416E-16
  0.381000012       1.17897510E-15
  0.381999999       3.24251264E-15
  0.382999986       5.29228557E-15
  0.384000003       7.26070290E-15
  0.384999990       9.08000007E-15
  0.386000007       1.06846896E-14
  0.386999995       1.20140510E-14
  0.388000011       1.30145748E-14
  0.388999999       1.36422551E-14
  0.389999986       1.38646351E-14
  0.391000003       1.36625127E-14
  0.391999990       1.30312165E-14
  0.393000007       1.19813810E-14
  0.393999994       1.05391575E-14
  0.395000011       8.74582609E-15
  0.395999998       6.65678916E-15
  0.397000015       4.33994991E-15
  0.398000002       1.87351448E-15
  0.398999989      -6.56729737E-16
  0.400000006      -3.16057385E-15
  0.400999993      -5.54687869E-15
  0.402000010      -7.72726982E-15
  0.402999997      -9.61989210E-15
  0.404000014      -1.11530700E-14
  0.405000001      -1.22687140E-14
  0.405999988      -1.29253043E-14
  0.407000005      -1.31003098E-14
  0.407999992      -1.27918975E-14
  0.409000009      -1.20198134E-14
  0.409999996      -1.08253538E-14
  0.411000013      -9.27036564E-15
  0.412000000      -7.43525775E-15
  0.412999988      -5.41605360E-15
  0.414000005      -3.32055190E-15
  0.414999992      -1.26370741E-15
  0.416000009       6.37610827E-16
  0.416999996       2.27029119E-15
  0.418000013       3.53085261E-15
  0.419000000       4.33126782E-15
  0.419999987       4.60446221E-15
  0.421000004       4.30922083E-15
  0.421999991       3.43422647E-15
  0.423000008       2.00097727E-15
  0.423999995       6.53638385E-17
  0.425000012      -2.28227691E-15
  0.425999999      -4.91875844E-15
  0.426999986      -7.69135393E-15
  0.428000003      -1.04228124E-14
  0.428999990      -1.29179987E-14
  0.430000007      -1.49719968E-14
  0.430999994      -1.63794302E-14
  0.432000011      -1.69446942E-14
  0.432999998      -1.64927005E-14
  0.433999985      -1.48797177E-14
  0.435000002      -1.20038164E-14
  0.435999990      -7.81441088E-15
  0.437000006      -2.32040060E-15
  0.437999994       4.40359639E-15
  0.439000010       1.22133579E-14
  0.439999998       2.08939226E-14
  0.441000015       3.01615016E-14
  0.442000002       3.96686603E-14
  0.442999989       4.90128432E-14
  0.444000006       5.77481788E-14
  0.444999993       6.54003964E-14
  0.446000010       7.14844782E-14
  0.446999997       7.55245747E-14
  0.448000014       7.70755665E-14
  0.449000001       7.57454741E-14
  0.449999988       7.12178865E-14
  0.451000005       6.32734696E-14
  0.451999992       5.18095630E-14
  0.453000009       3.68568870E-14
  0.453999996       1.85923800E-14
  0.455000013      -2.65269797E-15
  0.456000000      -2.63901890E-14
  0.456999987      -5.19785969E-14
  0.458000004      -7.86331856E-14
  0.458999991      -1.05442849E-13
  0.460000008      -1.31393621E-13
  0.460999995      -1.55398562E-13
  0.462000012      -1.76333395E-13
  0.463000000      -1.93076918E-13
  0.463999987      -2.04555123E-13
  0.465000004      -2.09787550E-13
  0.465999991      -2.07934215E-13
  0.467000008      -1.98341425E-13
  0.467999995      -1.80584538E-13
  0.469000012      -1.54505708E-13
  0.469999999      -1.20244770E-13
  0.470999986      -7.82614398E-14
  0.472000003      -2.93472657E-14
  0.472999990       2.53740019E-14
  0.474000007       8.44586716E-14
  0.474999994       1.46168505E-13
  0.476000011       2.08509452E-13
  0.476999998       2.69283294E-13
  0.477999985       3.26151432E-13
  0.479000002       3.76709216E-13
  0.479999989       4.18568988E-13
  0.481000006       4.49449478E-13
  0.481999993       4.67268585E-13
  0.483000010       4.70236426E-13
  0.483999997       4.56945191E-13
  0.485000014       4.26452276E-13
  0.486000001       3.78352867E-13
  0.486999989       3.12838704E-13
  0.488000005       2.30739825E-13
  0.488999993       1.33546101E-13
  0.490000010       2.34066306E-14
  0.490999997      -9.68949178E-14
  0.492000014      -2.23989826E-13
  0.493000001      -3.53998731E-13
  0.493999988      -4.82630158E-13
  0.495000005      -6.05301237E-13
  0.495999992      -7.17277962E-13
  0.497000009      -8.13831316E-13
  0.497999996      -8.90404666E-13
  0.499000013      -9.42787298E-13
  0.500000000      -9.67288424E-13
  0.500999987      -9.60904858E-13
  0.501999974      -9.21476979E-13
  0.503000021      -8.47825499E-13
  0.504000008      -7.39863032E-13
  0.504999995      -5.98675731E-13
  0.505999982      -4.26568774E-13
  0.507000029      -2.27072403E-13
  0.508000016      -4.90537786E-15
  0.509000003       2.34105541E-13
  0.509999990       4.83150195E-13
  0.510999978       7.34602320E-13
  0.512000024       9.80226100E-13
  0.513000011       1.21141758E-12
  0.513999999       1.41947456E-12
  0.514999986       1.59588716E-12
  0.515999973       1.73264029E-12
  0.517000020       1.82251848E-12
  0.518000007       1.85940239E-12
  0.518999994       1.83854537E-12
  0.519999981       1.75682082E-12
  0.521000028       1.61292876E-12
  0.522000015       1.40755246E-12
  0.523000002       1.14345675E-12
  0.523999989       8.25521075E-13
  0.524999976       4.60702331E-13
  0.526000023       5.79251545E-14
  0.527000010      -3.72101357E-13
  0.527999997      -8.17137753E-13
  0.528999984      -1.26373467E-12
  0.529999971      -1.69761221E-12
  0.531000018      -2.10408860E-12
  0.532000005      -2.46854598E-12
  0.532999992      -2.77691932E-12
  0.533999979      -3.01619276E-12
  0.535000026      -3.17488722E-12
  0.536000013      -3.24352264E-12
  0.537000000      -3.21503653E-12
  0.537999988      -3.08514282E-12
  0.538999975      -2.85261636E-12
  0.540000021      -2.51948896E-12
  0.541000009      -2.09114627E-12
  0.541999996      -1.57631774E-12
  0.542999983      -9.86952382E-13
  0.544000030      -3.37983439E-13
  0.545000017       3.53019290E-13
  0.546000004       1.06630134E-12
  0.546999991       1.78046933E-12
  0.547999978       2.47311611E-12
  0.549000025       3.12150869E-12
  0.550000012       3.70331760E-12
  0.550999999       4.19736555E-12
  0.551999986       4.58437021E-12
  0.552999973       4.84765700E-12
  0.554000020       4.97381476E-12
  0.555000007       4.95327173E-12
  0.555999994       4.78076693E-12
  0.556999981       4.45569796E-12
  0.558000028       3.98232922E-12
  0.559000015       3.36984607E-12
  0.560000002       2.63224707E-12
  0.560999990       1.78807284E-12
  0.561999977       8.59973659E-13
  0.563000023      -1.25876631E-13
  0.564000010      -1.14050522E-12
  0.564999998      -2.15298634E-12
  0.565999985      -3.13138209E-12
  0.566999972      -4.04375144E-12
  0.568000019      -4.85919551E-12
  0.569000006      -5.54890725E-12
  0.569999993      -6.08718544E-12
  0.570999980      -6.45238160E-12
  0.572000027      -6.62774566E-12
  0.573000014      -6.60213507E-12
  0.574000001      -6.37056250E-12
  0.574999988      -5.93455580E-12
  0.575999975      -5.30231241E-12
  0.577000022      -4.48863689E-12
  0.578000009      -3.51465580E-12
  0.578999996      -2.40731328E-12
  0.579999983      -1.19865608E-12
  0.580999970       7.50725437E-14
  0.582000017       1.37450706E-12
  0.583000004       2.65836962E-12
  0.583999991       3.88478008E-12
  0.584999979       5.01262400E-12
  0.586000025       6.00293166E-12
  0.587000012       6.82023014E-12
  0.588000000       7.43380964E-12
  0.588999987       7.81886968E-12
  0.589999974       7.95749577E-12
  0.591000021       7.83943396E-12
  0.592000008       7.46262687E-12
  0.592999995       6.83349167E-12
  0.593999982       5.96691880E-12
  0.595000029       4.88598745E-12
  0.596000016       3.62139962E-12
  0.597000003       2.21064399E-12
  0.597999990       6.96912254E-13
  0.598999977      -8.72202321E-13
  0.600000024      -2.44618431E-12
  0.601000011      -3.97320805E-12
  0.601999998      -5.40183046E-12
  0.602999985      -6.68270994E-12
  0.603999972      -7.77028962E-12
  0.605000019      -8.62439460E-12
  0.606000006      -9.21167916E-12
  0.606999993      -9.50687445E-12
  0.607999980      -9.49379551E-12
  0.609000027      -9.16605854E-12
  0.610000014      -8.52748427E-12
  0.611000001      -7.59216908E-12
  0.611999989      -6.38421043E-12
  0.612999976      -4.93709284E-12
  0.614000022      -3.29274867E-12
  0.615000010      -1.50031864E-12
  0.615999997       3.85350389E-13
  0.616999984       2.30542191E-12
  0.617999971       4.19894761E-12
  0.619000018       6.00484159E-12
  0.620000005       7.66389122E-12
  0.620999992       9.12073021E-12
  0.621999979       1.03257082E-11
  0.623000026       1.12365924E-11
  0.624000013       1.18200397E-11
  0.625000000       1.20527867E-11
  0.625999987       1.19225125E-11
  0.626999974       1.14283418E-11
  0.628000021       1.05809684E-11
  0.629000008       9.40238859E-12
  0.629999995       7.92524987E-12
  0.630999982       6.19183871E-12
  0.632000029       4.25273575E-12
  0.633000016       2.16518296E-12
  0.634000003      -8.78062813E-15
  0.634999990      -2.20435259E-12
  0.635999978      -4.35609838E-12
  0.637000024      -6.40010614E-12
  0.638000011      -8.27609162E-12
  0.638999999      -9.92937243E-12
  0.639999986      -1.13126505E-11
  0.640999973      -1.23875294E-11
  0.642000020      -1.31257193E-11
  0.643000007      -1.35098816E-11
  0.643999994      -1.35340853E-11
  0.644999981      -1.32038564E-11
  0.646000028      -1.25358187E-11
  0.647000015      -1.15569455E-11
  0.648000002      -1.03034430E-11
  0.648999989      -8.81931073E-12
  0.649999976      -7.15463539E-12
  0.651000023      -5.36368085E-12
  0.652000010      -3.50284819E-12
  0.652999997      -1.62858334E-12
  0.653999984       2.04684089E-13
  0.654999971       1.94649527E-12
  0.656000018       3.55213016E-12
  0.657000005       4.98412076E-12
  0.657999992       6.21345119E-12
  0.658999979       7.22039616E-12
  0.660000026       7.99496320E-12
  0.661000013       8.53692290E-12
  0.662000000       8.85542594E-12
  0.662999988       8.96822113E-12
  0.663999975       8.90050620E-12
  0.665000021       8.68346280E-12
  0.666000009       8.35253134E-12
  0.666999996       7.94550190E-12
  0.667999983       7.50050456E-12
  0.669000030       7.05398240E-12
  0.670000017       6.63873860E-12
  0.671000004       6.28214581E-12
  0.671999991       6.00460090E-12
  0.672999978       5.81830070E-12
  0.674000025       5.72639852E-12
  0.675000012       5.72259037E-12
  0.675999999       5.79116442E-12
  0.676999986       5.90752230E-12
  0.677999973       6.03916656E-12
  0.679000020       6.14712448E-12
  0.680000007       6.18776341E-12
  0.680999994       6.11492974E-12
  0.681999981       5.88232718E-12
  0.683000028       5.44604552E-12
  0.684000015       4.76712853E-12
  0.685000002       3.81407102E-12
  0.685999990       2.56513409E-12
  0.686999977       1.01036692E-12
  0.688000023      -8.46768348E-13
  0.689000010      -2.98825960E-12
  0.689999998      -5.38096911E-12
  0.690999985      -7.97667488E-12
  0.691999972      -1.07127640E-11
  0.693000019      -1.35135835E-11
  0.694000006      -1.62924292E-11
  0.694999993      -1.89541351E-11
  0.695999980      -2.13981766E-11
  0.697000027      -2.35222120E-11
  0.698000014      -2.52259325E-11
  0.699000001      -2.64150837E-11
  0.699999988      -2.70055246E-11
  0.700999975      -2.69271515E-11
  0.702000022      -2.61275342E-11
  0.703000009      -2.45751110E-11
  0.703999996      -2.22617879E-11
  0.704999983      -1.92048183E-11
  0.705999970      -1.54478461E-11
  0.707000017      -1.10610297E-11
  0.708000004      -6.14019773E-12
  0.708999991      -8.05011006E-13
  0.709999979       4.80385219E-12
  0.711000025       1.05284306E-11
  0.712000012       1.61980516E-11
  0.713000000       2.16346056E-11
  0.713999987       2.66583734E-11
  0.714999974       3.10942140E-11
  0.716000021       3.47779236E-11
  0.717000008       3.75625156E-11
  0.717999995       3.93242140E-11
  0.718999982       3.99679213E-11
  0.720000029       3.94319438E-11
  0.721000016       3.76917698E-11
  0.722000003       3.47627031E-11
  0.722999990       3.07012263E-11
  0.723999977       2.56049799E-11
  0.725000024       1.96112813E-11
  0.726000011       1.28941849E-11
  0.726999998       5.66010693E-12
  0.727999985      -1.85788971E-12
  0.728999972      -9.40701336E-12
  0.730000019      -1.67226788E-11
  0.731000006      -2.35372173E-11
  0.731999993      -2.95891089E-11
  0.732999980      -3.46324081E-11
  0.734000027      -3.84460901E-11
  0.735000014      -4.08429401E-11
  0.736000001      -4.16776752E-11
  0.736999989      -4.08539973E-11
  0.737999976      -3.83302591E-11
  0.739000022      -3.41235096E-11
  0.740000010      -2.83116898E-11
  0.740999997      -2.10338275E-11
  0.741999984      -1.24881425E-11
  0.742999971      -2.92802674E-12
  0.744000018       7.34405418E-12
  0.745000005       1.79846207E-11
  0.745999992       2.86190047E-11
  0.746999979       3.88526988E-11
  0.748000026       4.82838838E-11
  0.749000013       5.65168121E-11
  0.750000000       6.31755689E-11
  0.750999987       6.79178172E-11
  0.751999974       7.04480294E-11
  0.753000021       7.05297626E-11
  0.754000008       6.79965251E-11
  0.754999995       6.27608104E-11
  0.755999982       5.48208909E-11
  0.757000029       4.42651540E-11
  0.758000016       3.12735740E-11
  0.759000003       1.61163062E-11
  0.759999990      -8.50745689E-13
  0.760999978      -1.91933483E-11
  0.762000024      -3.84092272E-11
  0.763000011      -5.79409958E-11
  0.763999999      -7.71914199E-11
  0.764999986      -9.55405893E-11
  0.765999973      -1.12364562E-10
  0.767000020      -1.27054867E-10
  0.768000007      -1.39038350E-10
  0.768999994      -1.47796692E-10
  0.769999981      -1.52884941E-10
  0.771000028      -1.53948465E-10
  0.772000015      -1.50737769E-10
  0.773000002      -1.43120515E-10
  0.773999989      -1.31090361E-10
  0.774999976      -1.14772206E-10
  0.776000023      -9.44235037E-11
  0.777000010      -7.04315564E-11
  0.777999997      -4.33066430E-11
  0.778999984      -1.36711406E-11
  0.779999971       1.77551845E-11
  0.781000018       5.01733932E-11
  0.782000005       8.27265895E-11
  0.782999992       1.14523620E-10
  0.783999979       1.44664544E-10
  0.785000026       1.72267145E-10
  0.786000013       1.96493724E-10
  0.787000000       2.16577298E-10
  0.787999988       2.31846362E-10
  0.788999975       2.41747483E-10
  0.790000021       2.45864884E-10
  0.791000009       2.43936371E-10
  0.791999996       2.35864939E-10
  0.792999983       2.21725707E-10
  0.794000030       2.01767797E-10
  0.795000017       1.76410886E-10
  0.796000004       1.46236537E-10
  0.796999991       1.11974381E-10
  0.797999978       7.44834958E-11
  0.799000025       3.47294207E-11
  0.800000012      -6.24255161E-12
  0.800999999      -4.73370648E-11
  0.801999986      -8.74405062E-11
  0.802999973      -1.25453981E-10
  0.804000020      -1.60326460E-10
  0.805000007      -1.91087021E-10
  0.805999994      -2.16875226E-10
  0.806999981      -2.36968611E-10
  0.808000028      -2.50806320E-10
  0.809000015      -2.58008143E-10
  0.810000002      -2.58388311E-10
  0.810999990      -2.51963339E-10
  0.811999977      -2.38953746E-10
  0.813000023      -2.19779375E-10
  0.814000010      -1.95048408E-10
  0.814999998      -1.65540345E-10
  0.815999985      -1.32183278E-10
  0.816999972      -9.60261454E-11
  0.818000019      -5.82068387E-11
  0.819000006      -1.99170107E-11
  0.819999993       1.76353619E-11
  0.820999980       5.32643651E-11
  0.822000027       8.58443663E-11
  0.823000014       1.14346851E-10
  0.824000001       1.37874573E-10
  0.824999988       1.55691987E-10
  0.825999975       1.67250838E-10
  0.827000022       1.72210010E-10
  0.828000009       1.70448947E-10
  0.828999996       1.62074118E-10
  0.829999983       1.47418106E-10
  0.830999970       1.27031302E-10
  0.832000017       1.01666446E-10
  0.833000004       7.22561663E-11
  0.833999991       3.98844048E-11
  0.834999979       5.75239162E-12
  0.836000025      -2.88597618E-11
  0.837000012      -6.26346544E-11
  0.838000000      -9.42610781E-11
  0.838999987      -1.22478000E-10
  0.839999974      -1.46117590E-10
  0.841000021      -1.64145947E-10
  0.842000008      -1.75700079E-10
  0.842999995      -1.80119877E-10
  0.843999982      -1.76973991E-10
  0.845000029      -1.66078665E-10
  0.846000016      -1.47508811E-10
  0.847000003      -1.21600785E-10
  0.847999990      -8.89466972E-11
  0.848999977      -5.03803214E-11
  0.850000024      -6.95489326E-12
  0.851000011       4.00865972E-11
  0.851999998       8.93477237E-11
  0.852999985       1.39320472E-10
  0.853999972       1.88431437E-10
  0.855000019       2.35090752E-10
  0.856000006       2.77742385E-10