   0.00000000       0.00000000    
   1.00000005E-03   0.00000000    
   2.00000009E-03   0.00000000    
   3.00000003E-03   0.00000000    
   4.00000019E-03   0.00000000    
   4.99999989E-03   0.00000000    
   6.00000005E-03   0.00000000    
   7.00000022E-03   0.00000000    
   8.00000038E-03   0.00000000    
   8.99999961E-03   0.00000000    
   9.99999978E-03   0.00000000    
   1.09999999E-02   0.00000000    
   1.20000001E-02   0.00000000    
   1.30000003E-02   0.00000000    
   1.40000004E-02  -5.03357731E-38
   1.49999997E-02  -2.11820590E-37
   1.60000008E-02  -9.31698013E-37
   1.70000009E-02  -3.57615314E-36
   1.79999992E-02  -1.29147483E-35
   1.89999994E-02  -3.94078110E-35
   1.99999996E-02  -1.05733203E-34
   2.09999997E-02  -2.60154349E-34
   2.19999999E-02  -6.04641876E-34
   2.30000000E-02  -1.33660632E-33
   2.40000002E-02  -2.83094525E-33
   2.50000004E-02  -5.76852290E-33
   2.60000005E-02  -1.13294843E-32
   2.70000007E-02  -2.14912209E-32
   2.80000009E-02  -3.94449648E-32
   2.89999992E-02  -7.01615374E-32
   2.99999993E-02  -1.21115203E-31
   3.09999995E-02  -2.03150862E-31
   3.20000015E-02  -3.31429339E-31
   3.29999998E-02  -5.26319226E-31
   3.40000018E-02  -8.14004353E-31
   3.50000001E-02  -1.22644968E-30
   3.59999985E-02  -1.80022126E-30
   3.70000005E-02  -2.57350339E-30
   3.79999988E-02  -3.58051742E-30
   3.90000008E-02  -4.84247700E-30
   3.99999991E-02  -6.35425602E-30
   4.10000011E-02  -8.06618130E-30
   4.19999994E-02  -9.86086513E-30
   4.30000015E-02  -1.15258617E-29
   4.39999998E-02  -1.27242520E-29
   4.50000018E-02  -1.29670381E-29
   4.60000001E-02  -1.15934874E-29
   4.69999984E-02  -7.76822188E-30
   4.80000004E-02  -5.06590293E-31
   4.89999987E-02   1.12576037E-29
   5.00000007E-02   2.85463202E-29
   5.09999990E-02   5.21377884E-29
   5.20000011E-02   8.22803735E-29
   5.29999994E-02   1.18313656E-28
   5.40000014E-02   1.58202458E-28
   5.49999997E-02   1.98008204E-28
   5.60000017E-02   2.31348242E-28
   5.70000000E-02   2.48928275E-28
   5.79999983E-02   2.38275619E-28
   5.90000004E-02   1.83849417E-28
   5.99999987E-02   6.77575136E-29
   6.10000007E-02  -1.28641203E-28
   6.19999990E-02  -4.21927484E-28
   6.30000010E-02  -8.22265293E-28
   6.40000030E-02  -1.32716718E-27
   6.49999976E-02  -1.91311038E-27
   6.59999996E-02  -2.52486045E-27
   6.70000017E-02  -3.06256623E-27
   6.80000037E-02  -3.36699354E-27
   6.89999983E-02  -3.20368913E-27
   7.00000003E-02  -2.24740059E-27
   7.10000023E-02  -6.87322027E-29
   7.19999969E-02   3.87424690E-27
   7.29999989E-02   1.02359171E-26
   7.40000010E-02   1.97702101E-26
   7.50000030E-02   3.32998742E-26
   7.59999976E-02   5.16623065E-26
   7.69999996E-02   7.56262214E-26
   7.80000016E-02   1.05773687E-25
   7.90000036E-02   1.42343072E-25
   7.99999982E-02   1.85030259E-25
   8.10000002E-02   2.32748258E-25
   8.20000023E-02   2.83349716E-25
   8.29999968E-02   3.33321712E-25
   8.39999989E-02   3.77469105E-25
   8.50000009E-02   4.08610770E-25
   8.60000029E-02   4.17321273E-25
   8.69999975E-02   3.91760578E-25
   8.79999995E-02   3.17643250E-25
   8.90000015E-02   1.78407340E-25
   9.00000036E-02  -4.43505366E-26
   9.09999982E-02  -3.70103831E-25
   9.20000002E-02  -8.18219843E-25
   9.30000022E-02  -1.40631693E-24
   9.39999968E-02  -2.14810966E-24
   9.49999988E-02  -3.05071879E-24
   9.60000008E-02  -4.11146100E-24
   9.70000029E-02  -5.31417648E-24
   9.79999974E-02  -6.62520887E-24
   9.89999995E-02  -7.98922905E-24
  0.100000001      -9.32515632E-24
  0.101000004      -1.05225320E-23
  0.101999998      -1.14387734E-23
  0.103000000      -1.18978195E-23
  0.104000002      -1.16907561E-23
  0.104999997      -1.05790523E-23
  0.105999999      -8.30106182E-24
  0.107000001      -4.58241253E-24
  0.108000003       8.49143486E-25
  0.108999997       8.24402008E-24
  0.109999999       1.78060074E-23
  0.111000001       2.96624827E-23
  0.112000003       4.38300964E-23
  0.112999998       6.01768027E-23
  0.114000000       7.83817307E-23
  0.115000002       9.78948615E-23
  0.115999997       1.17899226E-22
  0.116999999       1.37278824E-22
  0.118000001       1.54596227E-22
  0.119000003       1.68084171E-22
  0.119999997       1.75655885E-22
  0.120999999       1.74939069E-22
  0.122000001       1.63338194E-22
  0.123000003       1.38129519E-22
  0.123999998       9.65921430E-23
  0.125000000       3.61771674E-23
  0.126000002      -4.52847591E-23
  0.127000004      -1.49339674E-22
  0.128000006      -2.76635268E-22
  0.128999993      -4.26622793E-22
  0.129999995      -5.97247828E-22
  0.130999997      -7.84645636E-22
  0.131999999      -9.82860810E-22
  0.133000001      -1.18361458E-21
  0.134000003      -1.37614632E-21
  0.135000005      -1.54715844E-21
  0.136000007      -1.68089472E-21
  0.136999995      -1.75938327E-21
  0.137999997      -1.76287072E-21
  0.138999999      -1.67047418E-21
  0.140000001      -1.46106562E-21
  0.141000003      -1.11439889E-21
  0.142000005      -6.12475999E-22
  0.143000007       5.88672494E-23
  0.143999994       9.08190594E-22
  0.144999996       1.93654735E-21
  0.145999998       3.13552808E-21
  0.147000000       4.48534285E-21
  0.148000002       5.95306014E-21
  0.149000004       7.49113746E-21
  0.150000006       9.03639324E-21
  0.150999993       1.05095785E-20
  0.151999995       1.18157161E-20
  0.152999997       1.28453661E-20
  0.153999999       1.34769629E-20
  0.155000001       1.35803443E-20
  0.156000003       1.30215499E-20
  0.157000005       1.16689400E-20
  0.158000007       9.40058051E-21
  0.158999994       6.11280414E-21
  0.159999996       1.72975442E-21
  0.160999998      -3.78637402E-21
  0.162000000      -1.04247779E-20
  0.163000003      -1.81156496E-20
  0.164000005      -2.67205236E-20
  0.165000007      -3.60240226E-20
  0.165999994      -4.57277075E-20
  0.166999996      -5.54468212E-20
  0.167999998      -6.47106947E-20
  0.169000000      -7.29675535E-20
  0.170000002      -7.95943946E-20
  0.171000004      -8.39125101E-20
  0.172000006      -8.52090252E-20
  0.172999993      -8.27646096E-20
  0.173999995      -7.58872231E-20
  0.174999997      -6.39514463E-20
  0.175999999      -4.64425789E-20
  0.177000001      -2.30042741E-20
  0.178000003       6.51191394E-21
  0.179000005       4.19971423E-20
  0.180000007       8.30384839E-20
  0.180999994       1.28877505E-19
  0.181999996       1.78377260E-19
  0.182999998       2.30000878E-19
  0.184000000       2.81805106E-19
  0.185000002       3.31451866E-19
  0.186000004       3.76240620E-19
  0.187000006       4.13164179E-19
  0.187999994       4.38989352E-19
  0.188999996       4.50363448E-19
  0.189999998       4.43946335E-19
  0.191000000       4.16566476E-19
  0.192000002       3.65398118E-19
  0.193000004       2.88155061E-19
  0.194000006       1.83295146E-19
  0.194999993       5.02276799E-20
  0.195999995      -1.10485157E-19
  0.196999997      -2.96943364E-19
  0.197999999      -5.05751875E-19
  0.199000001      -7.31903468E-19
  0.200000003      -9.68713594E-19
  0.201000005      -1.20781966E-18
  0.202000007      -1.43925591E-18
  0.202999994      -1.65161261E-18
  0.203999996      -1.83228819E-18
  0.204999998      -1.96783703E-18
  0.206000000      -2.04441493E-18
  0.207000002      -2.04831757E-18
  0.208000004      -1.96660350E-18
  0.209000006      -1.78778877E-18
  0.209999993      -1.50259281E-18
  0.210999995      -1.10471222E-18
  0.211999997      -5.91590992E-19
  0.213000000       3.48450867E-20
  0.214000002       7.67530034E-19
  0.215000004       1.59371524E-18
  0.216000006       2.49458524E-18
  0.216999993       3.44507428E-18
  0.217999995       4.41392219E-18
  0.218999997       5.36400612E-18
  0.219999999       6.25297465E-18
  0.221000001       7.03420579E-18
  0.222000003       7.65809684E-18
  0.223000005       8.07368148E-18
  0.224000007       8.23055297E-18
  0.224999994       8.08106076E-18
  0.225999996       7.58272580E-18
  0.226999998       6.70080568E-18
  0.228000000       5.41092050E-18
  0.229000002       3.70163986E-18
  0.230000004       1.57691510E-18
  0.231000006      -9.41769219E-19
  0.231999993      -3.81365418E-18
  0.232999995      -6.97751249E-18
  0.233999997      -1.03511264E-17
  0.234999999      -1.38315575E-17
  0.236000001      -1.72963102E-17
  0.237000003      -2.06054711E-17
  0.238000005      -2.36048627E-17
  0.238999993      -2.61302385E-17
  0.239999995      -2.80124748E-17
  0.240999997      -2.90837067E-17
  0.241999999      -2.91842522E-17
  0.243000001      -2.81701850E-17
  0.244000003      -2.59213175E-17
  0.245000005      -2.23493051E-17
  0.246000007      -1.74056006E-17
  0.246999994      -1.10888706E-17
  0.247999996      -3.45153353E-18
  0.248999998       5.39499148E-18
  0.250000000       1.52766793E-17
  0.250999987       2.59553245E-17
  0.252000004       3.71293120E-17
  0.252999991       4.84370166E-17
  0.254000008       5.94630298E-17
  0.254999995       6.97473266E-17
  0.256000012       7.87974237E-17
  0.256999999       8.61033409E-17
  0.257999986       9.11551910E-17
  0.259000003       9.34630514E-17
  0.259999990       9.25785438E-17
  0.261000007       8.81175257E-17
  0.261999995       7.97831318E-17
  0.263000011       6.73882935E-17
  0.263999999       5.08767991E-17
  0.264999986       3.03418319E-17
  0.266000003       6.04104560E-18
  0.266999990      -2.15929146E-17
  0.268000007      -5.19473759E-17
  0.268999994      -8.42309150E-17
  0.270000011      -1.17481723E-16
  0.270999998      -1.50583532E-16
  0.272000015      -1.82289286E-16
  0.273000002      -2.11252783E-16
  0.273999989      -2.36067738E-16
  0.275000006      -2.55313809E-16
  0.275999993      -2.67608492E-16
  0.277000010      -2.71663663E-16
  0.277999997      -2.66345090E-16
  0.279000014      -2.50732923E-16
  0.280000001      -2.24180981E-16
  0.280999988      -1.86372501E-16
  0.282000005      -1.37369778E-16
  0.282999992      -7.76550542E-17
  0.284000009      -8.16026578E-18
  0.284999996       6.97168202E-17
  0.286000013       1.54112166E-16
  0.287000000       2.42712394E-16
  0.287999988       3.32790378E-16
  0.289000005       4.21260216E-16
  0.289999992       5.04751539E-16
  0.291000009       5.79702573E-16
  0.291999996       6.42469938E-16
  0.293000013       6.89453744E-16
  0.294000000       7.17234201E-16
  0.294999987       7.22715933E-16
  0.296000004       7.03275733E-16
  0.296999991       6.56908302E-16
  0.298000008       5.82364480E-16
  0.298999995       4.79276070E-16
  0.300000012       3.48261381E-16
  0.300999999       1.91005136E-16
  0.301999986       1.03077954E-17
  0.303000003      -1.89900988E-16
  0.303999990      -4.04588675E-16
  0.305000007      -6.27689107E-16
  0.305999994      -8.52216101E-16
  0.307000011      -1.07042211E-15
  0.307999998      -1.27399992E-15
  0.308999985      -1.45432455E-15
  0.310000002      -1.60273065E-15
  0.310999990      -1.71081819E-15
  0.312000006      -1.77077860E-15
  0.312999994      -1.77573046E-15
  0.314000010      -1.72005467E-15
  0.314999998      -1.59971627E-15
  0.316000015      -1.41255958E-15
  0.317000002      -1.15856436E-15
  0.317999989      -8.40049637E-16
  0.319000006      -4.61812686E-16
  0.319999993      -3.11925706E-17
  0.321000010       4.41950796E-16
  0.321999997       9.45349544E-16
  0.323000014       1.46453669E-15
  0.324000001       1.98315231E-15
  0.324999988       2.48334432E-15
  0.326000005       2.94625863E-15
  0.326999992       3.35260871E-15
  0.328000009       3.68331134E-15
  0.328999996       3.92017139E-15
  0.330000013       4.04659699E-15
  0.331000000       4.04831943E-15
  0.331999987       3.91409478E-15
  0.333000004       3.63636157E-15
  0.333999991       3.21182379E-15
  0.335000008       2.64193663E-15
  0.335999995       1.93326567E-15
  0.337000012       1.09769816E-15
  0.338000000       1.52486471E-16
  0.338999987      -8.79893114E-16
  0.340000004      -1.97207524E-15
  0.340999991      -3.09233963E-15
  0.342000008      -4.20534113E-15
  0.342999995      -5.27302574E-15
  0.344000012      -6.25571694E-15
  0.344999999      -7.11334881E-15
  0.345999986      -7.80680960E-15
  0.347000003      -8.29936350E-15
  0.347999990      -8.55810496E-15
  0.349000007      -8.55539360E-15
  0.349999994      -8.27022556E-15
  0.351000011      -7.68948114E-15
  0.351999998      -6.80899632E-15
  0.352999985      -5.63441319E-15
  0.354000002      -4.18175592E-15
  0.354999989      -2.47769080E-15
  0.356000006      -5.59441121E-16
  0.356999993       1.52566939E-15
  0.358000010       3.72105597E-15
  0.358999997       5.96209720E-15
  0.360000014       8.17772872E-15
  0.361000001       1.02923778E-14
  0.361999989       1.22282022E-14
  0.363000005       1.39075712E-14
  0.363999993       1.52557258E-14
  0.365000010       1.62035421E-14
  0.365999997       1.66902929E-14
  0.367000014       1.66663372E-14
  0.368000001       1.60956165E-14
  0.368999988       1.49578666E-14
  0.370000005       1.32504506E-14
  0.370999992       1.09897172E-14
  0.372000009       8.21180146E-15
  0.372999996       4.97280338E-15
  0.374000013       1.34829498E-15
  0.375000000      -2.56788139E-15
  0.375999987      -6.66552503E-15
  0.377000004      -1.08206867E-14
  0.377999991      -1.48989352E-14
  0.379000008      -1.87592133E-14
  0.379999995      -2.22581946E-14
  0.381000012      -2.52550124E-14
  0.381999999      -2.76162387E-14
  0.382999986      -2.92209528E-14
  0.384000003      -2.99657150E-14
  0.384999990      -2.97693016E-14
  0.386000007      -2.85769773E-14
  0.386999995      -2.63641478E-14
  0.388000011      -2.31392410E-14
  0.388999999      -1.89456164E-14
  0.389999986      -1.38624218E-14
  0.391000003      -8.00425298E-15
  0.391999990      -1.51957817E-15
  0.393000007       5.41211913E-15
  0.393999994       1.25844617E-14
  0.395000011       1.97695050E-14
  0.395999998       2.67241673E-14
  0.397000015       3.31976064E-14
  0.398000002       3.89393751E-14
  0.398999989       4.37080758E-14
  0.400000006       4.72802949E-14
  0.400999993       4.94595040E-14
  0.402000010       5.00846109E-14
  0.402999997       4.90378442E-14
  0.404000014       4.62516513E-14
  0.405000001       4.17143127E-14
  0.405999988       3.54739804E-14
  0.407000005       2.76408874E-14
  0.407999992       1.83875589E-14
  0.409000009       7.94685803E-15
  0.409999996      -3.39220390E-15
  0.411000013      -1.52908759E-14
  0.412000000      -2.73692473E-14
  0.412999988      -3.92168123E-14
  0.414000005      -5.04047962E-14
  0.414999992      -6.04999381E-14
  0.416000009      -6.90793180E-14
  0.416999996      -7.57458061E-14
  0.418000013      -8.01436283E-14
  0.419000000      -8.19734837E-14
  0.419999987      -8.10066871E-14
  0.421000004      -7.70977994E-14
  0.421999991      -7.01951382E-14
  0.423000008      -6.03487122E-14
  0.423999995      -4.77151345E-14
  0.425000012      -3.25591401E-14
  0.425999999      -1.52513873E-14
  0.426999986       3.73753373E-15
  0.428000003       2.38470065E-14
  0.428999990       4.44400647E-14
  0.430000007       6.48206261E-14
  0.430999994       8.42539200E-14
  0.432000011       1.01989597E-13
  0.432999998       1.17286877E-13
  0.433999985       1.29440986E-13
  0.435000002       1.37810106E-13
  0.435999990       1.41841861E-13
  0.437000006       1.41098410E-13
  0.437999994       1.35279171E-13
  0.439000010       1.24240285E-13
  0.439999998       1.08009914E-13
  0.441000015       8.67985019E-14
  0.442000002       6.10034348E-14
  0.442999989       3.12075398E-14
  0.444000006      -1.82896944E-15
  0.444999993      -3.71831404E-14
  0.446000010      -7.37904949E-14
  0.446999997      -1.10472497E-13
  0.448000014      -1.45969635E-13
  0.449000001      -1.78979471E-13
  0.449999988      -2.08198449E-13
  0.451000005      -2.32366481E-13
  0.451999992      -2.50312764E-13
  0.453000009      -2.61001426E-13
  0.453999996      -2.63575376E-13
  0.455000013      -2.57396833E-13
  0.456000000      -2.42082721E-13
  0.456999987      -2.17533687E-13
  0.458000004      -1.83955160E-13
  0.458999991      -1.41869318E-13
  0.460000008      -9.21170692E-14
  0.460999995      -3.58492804E-14
  0.462000012       2.54930219E-14
  0.463000000       9.02094290E-14
  0.463999987       1.56381540E-13
  0.465000004       2.21924177E-13
  0.465999991       2.84645137E-13
  0.467000008       3.42312116E-13
  0.467999995       3.92724752E-13
  0.469000012       4.33789750E-13
  0.469999999       4.63596717E-13
  0.470999986       4.80492057E-13
  0.472000003       4.83148298E-13
  0.472999990       4.70626576E-13
  0.474000007       4.42429351E-13
  0.474999994       3.98541307E-13
  0.476000011       3.39456273E-13
  0.476999998       2.66188710E-13
  0.477999985       1.80268249E-13
  0.479000002       8.37169486E-14
  0.479999989      -2.09911468E-14
  0.481000006      -1.30987587E-13
  0.481999993      -2.43083169E-13
  0.483000010      -3.53855915E-13
  0.483999997      -4.59751269E-13
  0.485000014      -5.57191663E-13
  0.486000001      -6.42692063E-13
  0.486999989      -7.12978450E-13
  0.488000005      -7.65104397E-13
  0.488999993      -7.96562794E-13
  0.490000010      -8.05388091E-13
  0.490999997      -7.90245094E-13
  0.492000014      -7.50501115E-13
  0.493000001      -6.86278237E-13
  0.493999988      -5.98482581E-13
  0.495000005      -4.88808972E-13
  0.495999992      -3.59719795E-13
  0.497000009      -2.14397348E-13
  0.497999996      -5.66702786E-14
  0.499000013       1.09084345E-13
  0.500000000       2.78061374E-13
  0.500999987       4.45166825E-13
  0.501999974       6.05172379E-13
  0.503000021       7.52880560E-13
  0.504000008       8.83294902E-13
  0.504999995       9.91790417E-13
  0.505999982       1.07427760E-12
  0.507000029       1.12735515E-12
  0.508000016       1.14844484E-12
  0.509000003       1.13590420E-12
  0.509999990       1.08911155E-12
  0.510999978       1.00851987E-12
  0.512000024       8.95676654E-13
  0.513000011       7.53207501E-13
  0.513999999       5.84763249E-13
  0.514999986       3.94930616E-13
  0.515999973       1.89108684E-13
  0.517000020      -2.66458879E-14
  0.518000007      -2.45800938E-13
  0.518999994      -4.61552183E-13
  0.519999981      -6.67041997E-13
  0.521000028      -8.55586381E-13
  0.522000015      -1.02090233E-12
  0.523000002      -1.15732814E-12
  0.523999989      -1.26002908E-12
  0.524999976      -1.32517912E-12
  0.526000023      -1.35011381E-12
  0.527000010      -1.33344746E-12
  0.527999997      -1.27514828E-12
  0.528999984      -1.17656937E-12
  0.529999971      -1.04043250E-12
  0.531000018      -8.70763531E-13
  0.532000005      -6.72781329E-13
  0.532999992      -4.52742173E-13
  0.533999979      -2.17744185E-13
  0.535000026       2.45020882E-14
  0.536000013       2.65929938E-13
  0.537000000       4.98390988E-13
  0.537999988       7.13938620E-13
  0.538999975       9.05110297E-13
  0.540000021       1.06519882E-12
  0.541000009       1.18850253E-12
  0.541999996       1.27054400E-12
  0.542999983       1.30825017E-12
  0.544000030       1.30008471E-12
  0.545000017       1.24612863E-12
  0.546000004       1.14810277E-12
  0.546999991       1.00933194E-12
  0.547999978       8.34649786E-13
  0.549000025       6.30246506E-13
  0.550000012       4.03464263E-13
  0.550999999       1.62545975E-13
  0.551999986      -8.36537464E-14
  0.552999973      -3.25985332E-13
  0.554000020      -5.55338165E-13
  0.555000007      -7.62979415E-13
  0.555999994      -9.40884957E-13
  0.556999981      -1.08204992E-12
  0.558000028      -1.18076642E-12
  0.559000015      -1.23285854E-12
  0.560000002      -1.23586297E-12
  0.560999990      -1.18914882E-12
  0.561999977      -1.09397018E-12
  0.563000023      -9.53447933E-13
  0.564000010      -7.72480170E-13
  0.564999998      -5.57583385E-13
  0.565999985      -3.16668621E-13
  0.566999972      -5.87603154E-14
  0.568000019       2.06332808E-13
  0.569000006       4.68382982E-13
  0.569999993       7.17131758E-13
  0.570999980       9.42685925E-13
  0.572000027       1.13590636E-12
  0.573000014       1.28877529E-12
  0.574000001       1.39472548E-12
  0.574999988       1.44891900E-12
  0.575999975       1.44846288E-12
  0.577000022       1.39255209E-12
  0.578000009       1.28253332E-12
  0.578999996       1.12188373E-12
  0.579999983       9.16105625E-13
  0.580999970       6.72538251E-13
  0.582000017       4.00093316E-13
  0.583000004       1.08922393E-13
  0.583999991      -1.89971018E-13
  0.584999979      -4.85160794E-13
  0.586000025      -7.65252662E-13
  0.587000012      -1.01934487E-12
  0.588000000      -1.23747811E-12
  0.588999987      -1.41105432E-12
  0.589999974      -1.53320781E-12
  0.591000021      -1.59911223E-12
  0.592000008      -1.60620855E-12
  0.592999995      -1.55434335E-12
  0.593999982      -1.44580983E-12
  0.595000029      -1.28528709E-12
  0.596000016      -1.07967715E-12
  0.597000003      -8.37845364E-13
  0.597999990      -5.70271532E-13
  0.598999977      -2.88623970E-13
  0.600000024      -5.27339674E-15
  0.601000011       2.67235236E-13
  0.601999998       5.16731948E-13
  0.602999985       7.31968739E-13
  0.603999972       9.03140735E-13
  0.605000019       1.02235928E-12
  0.606000006       1.08405537E-12
  0.606999993       1.08529255E-12
  0.607999980       1.02597434E-12
  0.609000027       9.08933031E-13
  0.610000014       7.39892089E-13
  0.611000001       5.27299396E-13
  0.611999989       2.82033294E-13
  0.612999976       1.69900308E-14
  0.614000022      -2.53433830E-13
  0.615000010      -5.13947337E-13
  0.615999997      -7.49035599E-13
  0.616999984      -9.43668537E-13
  0.617999971      -1.08402003E-12
  0.619000018      -1.15816623E-12
  0.620000005      -1.15673215E-12
  0.620999992      -1.07345730E-12
  0.621999979      -9.05652235E-13
  0.623000026      -6.54521793E-13
  0.624000013      -3.25334323E-13
  0.625000000       7.25756261E-14
  0.625999987       5.25980680E-13
  0.626999974       1.01811073E-12
  0.628000021       1.52917262E-12
  0.629000008       2.03702680E-12
  0.629999995       2.51800100E-12
  0.630999982       2.94781148E-12
  0.632000029       3.30256092E-12
  0.633000016       3.55977595E-12
  0.634000003       3.69944136E-12
  0.634999990       3.70499074E-12
  0.635999978       3.56421078E-12
  0.637000024       3.27001512E-12
  0.638000011       2.82105502E-12
  0.638999999       2.22212960E-12
  0.639999986       1.48437209E-12
  0.640999973       6.25192552E-13
  0.642000020      -3.32034042E-13
  0.643000007      -1.35853178E-12
  0.643999994      -2.42093151E-12
  0.644999981      -3.48230299E-12
  0.646000028      -4.50338031E-12
  0.647000015      -5.44394347E-12
  0.648000002      -6.26430722E-12
  0.648999989      -6.92686837E-12
  0.649999976      -7.39765020E-12
  0.651000023      -7.64778865E-12
  0.652000010      -7.65489581E-12
  0.652999997      -7.40424735E-12
  0.653999984      -6.88973358E-12
  0.654999971      -6.11453770E-12
  0.656000018      -5.09149146E-12
  0.657000005      -3.84308948E-12
  0.657999992      -2.40114092E-12
  0.658999979      -8.06058020E-13
  0.660000026       8.94208806E-13
  0.661000013       2.64556302E-12
  0.662000000       4.38944454E-12
  0.662999988       6.06475200E-12
  0.663999975       7.60994479E-12
  0.665000021       8.96524868E-12
  0.666000009       1.00748984E-11
  0.666999996       1.08893250E-11
  0.667999983       1.13672101E-11
  0.669000030       1.14773269E-11
  0.670000017       1.12000903E-11
  0.671000004       1.05287497E-11
  0.671999991       9.47016771E-12
  0.672999978       8.04513400E-12
  0.674000025       6.28819609E-12
  0.675000012       4.24698644E-12
  0.675999999       1.98105573E-12
  0.676999986      -4.39762810E-13
  0.677999973      -2.93742114E-12
  0.679000020      -5.42809114E-12
  0.680000007      -7.82489438E-12
  0.680999994      -1.00408388E-11
  0.681999981      -1.19918667E-11
  0.683000028      -1.35999042E-11
  0.684000015      -1.47958139E-11
  0.685000002      -1.55221253E-11
  0.685999990      -1.57354581E-11
  0.686999977      -1.54085269E-11
  0.688000023      -1.45316537E-11
  0.689000010      -1.31137158E-11
  0.689999998      -1.11824786E-11
  0.690999985      -8.78427886E-12
  0.691999972      -5.98305867E-12
  0.693000019      -2.85876054E-12
  0.694000006       4.94883648E-13
  0.694999993       3.97310223E-12
  0.695999980       7.46329561E-12
  0.697000027       1.08486119E-11
  0.698000014       1.40117692E-11
  0.699000001       1.68390041E-11
  0.699999988       1.92240078E-11
  0.700999975       2.10717208E-11
  0.702000022       2.23018427E-11
  0.703000009       2.28519443E-11
  0.703999996       2.26800505E-11
  0.704999983       2.17666024E-11
  0.705999970       2.01157181E-11
  0.707000017       1.77556858E-11
  0.708000004       1.47386651E-11
  0.708999991       1.11395858E-11
  0.709999979       7.05426603E-12
  0.711000025       2.59679084E-12
  0.712000012      -2.10377093E-12
  0.713000000      -6.90720658E-12
  0.713999987      -1.16664491E-11
  0.714999974      -1.62321771E-11
  0.716000021      -2.04575731E-11
  0.717000008      -2.42030944E-11
  0.717999995      -2.73410877E-11
  0.718999982      -2.97600937E-11
  0.720000029      -3.13686993E-11
  0.721000016      -3.20988097E-11
  0.722000003      -3.19082052E-11
  0.722999990      -3.07823003E-11
  0.723999977      -2.87350508E-11
  0.725000024      -2.58089401E-11
  0.726000011      -2.20740596E-11
  0.726999998      -1.76262963E-11
  0.727999985      -1.25846677E-11
  0.728999972      -7.08790058E-12
  0.730000019      -1.29034348E-12
  0.731000006       4.64265432E-12
  0.731999993       1.05397496E-11
  0.732999980       1.62288412E-11
  0.734000027       2.15423703E-11
  0.735000014       2.63225067E-11
  0.736000001       3.04260679E-11
  0.736999989       3.37289953E-11
  0.737999976       3.61302550E-11
  0.739000022       3.75550320E-11
  0.740000010       3.79571131E-11
  0.740999997       3.73203933E-11
  0.741999984       3.56594337E-11
  0.742999971       3.30190736E-11
  0.744000018       2.94731010E-11
  0.745000005       2.51220295E-11
  0.745999992       2.00900529E-11
  0.746999979       1.45212575E-11
  0.748000026       8.57524121E-12
  0.749000013       2.42227007E-12
  0.750000000      -3.76189184E-12
  0.750999987      -9.80128912E-12
  0.751999974      -1.55250656E-11
  0.753000021      -2.07725746E-11
  0.754000008      -2.53981471E-11
  0.754999995      -2.92753703E-11
  0.755999982      -3.23007489E-11
  0.757000029      -3.43966418E-11
  0.758000016      -3.55133908E-11
  0.759000003      -3.56305818E-11
  0.759999990      -3.47573914E-11
  0.760999978      -3.29320356E-11
  0.762000024      -3.02203644E-11
  0.763000011      -2.67136070E-11
  0.763999999      -2.25253739E-11
  0.764999986      -1.77880263E-11
  0.765999973      -1.26485020E-11
  0.767000020      -7.26375383E-12
  0.768000007      -1.79593233E-12
  0.768999994       3.59253122E-12
  0.769999981       8.74379215E-12
  0.771000028       1.35092831E-11
  0.772000015       1.77540552E-11
  0.773000002       2.13606650E-11
  0.773999989       2.42325014E-11
  0.774999976       2.62964459E-11
  0.776000023       2.75047988E-11
  0.777000010       2.78364311E-11
  0.777999997       2.72971264E-11
  0.778999984       2.59191193E-11
  0.779999971       2.37598483E-11
  0.781000018       2.08999745E-11
  0.782000005       1.74407242E-11
  0.782999992       1.35006416E-11
  0.783999979       9.21186218E-12
  0.785000026       4.71600276E-12
  0.786000013       1.59800992E-13
  0.787000000      -4.30936276E-12
  0.787999988      -8.54794707E-12
  0.788999975      -1.24205958E-11
  0.790000021      -1.58042242E-11
  0.791000009      -1.85917323E-11
  0.791999996      -2.06952320E-11
  0.792999983      -2.20487101E-11
  0.794000030      -2.26100492E-11
  0.795000017      -2.23623359E-11
  0.796000004      -2.13144311E-11
  0.796999991      -1.95007812E-11
  0.797999978      -1.69804743E-11
  0.799000025      -1.38355560E-11
  0.800000012      -1.01686567E-11
  0.800999999      -6.09999681E-12
  0.801999986      -1.76383214E-12
  0.802999973       2.69554518E-12
  0.804000020       7.12816091E-12
  0.805000007       1.13829241E-11
  0.805999994       1.53122948E-11
  0.806999981       1.87769245E-11
  0.808000028       2.16501053E-11
  0.809000015       2.38219427E-11
  0.810000002       2.52030827E-11
  0.810999990       2.57278868E-11
  0.811999977       2.53569752E-11
  0.813000023       2.40790131E-11
  0.814000010       2.19116912E-11
  0.814999998       1.89018367E-11
  0.815999985       1.51246481E-11
  0.816999972       1.06820386E-11
  0.818000019       5.70010792E-12
  0.819000006       3.25821401E-13
  0.819999993      -5.27706871E-12
  0.820999980      -1.09327252E-11
  0.822000027      -1.64584353E-11
  0.823000014      -2.16701761E-11
  0.824000001      -2.63883880E-11
  0.824999988      -3.04438037E-11
  0.825999975      -3.36830876E-11
  0.827000022      -3.59741681E-11
  0.828000009      -3.72110433E-11
  0.828999996      -3.73179161E-11
  0.829999983      -3.62525045E-11
  0.830999970      -3.40083656E-11
  0.832000017      -3.06161485E-11
  0.833000004      -2.61437001E-11
  0.833999991      -2.06949683E-11
  0.834999979      -1.44077172E-11
  0.836000025      -7.45007007E-12
  0.837000012      -1.59598897E-14
  0.838000000       7.68038584E-12
  0.838999987       1.54108046E-11
  0.839999974       2.29401949E-11
  0.841000021       3.00339302E-11
  0.842000008       3.64654765E-11
  0.842999995       4.20239885E-11
  0.843999982       4.65215540E-11
  0.845000029       4.97998830E-11
  0.846000016       5.17362125E-11
  0.847000003       5.22481503E-11
  0.847999990       5.12972893E-11
  0.848999977       4.88914360E-11
  0.850000024       4.50853209E-11
  0.851000011       3.99797175E-11
  0.851999998       3.37189686E-11
  0.852999985       2.64869637E-11
  0.853999972       1.85016273E-11
  0.855000019       1.00081063E-11
  0.856000006       1.27085885E-12