   0.00000000       0.00000000    
   1.00000005E-03   0.00000000    
   2.00000009E-03   0.00000000    
   3.00000003E-03   0.00000000    
   4.00000019E-03   0.00000000    
   4.99999989E-03   0.00000000    
   6.00000005E-03   0.00000000    
   7.00000022E-03   0.00000000    
   8.00000038E-03   0.00000000    
   8.99999961E-03   0.00000000    
   9.99999978E-03   0.00000000    
   1.09999999E-02  -5.05226278E-38
   1.20000001E-02  -1.47153307E-36
   1.30000003E-02  -1.02443256E-35
   1.40000004E-02  -5.47392592E-35
   1.49999997E-02  -2.34067144E-34
   1.60000008E-02  -8.59821955E-34
   1.70000009E-02  -2.84128574E-33
   1.79999992E-02  -8.61380808E-33
   1.89999994E-02  -2.42467427E-32
   1.99999996E-02  -6.39251637E-32
   2.09999997E-02  -1.58963041E-31
   2.19999999E-02  -3.75040015E-31
   2.30000000E-02  -8.43638284E-31
   2.40000002E-02  -1.81692664E-30
   2.50000004E-02  -3.75969549E-30
   2.60000005E-02  -7.49736616E-30
   2.70000007E-02  -1.44452269E-29
   2.80000009E-02  -2.69500312E-29
   2.89999992E-02  -4.87793969E-29
   2.99999993E-02  -8.57944073E-29
   3.09999995E-02  -1.46832706E-28
   3.20000015E-02  -2.44807940E-28
   3.29999998E-02  -3.97989643E-28
   3.40000018E-02  -6.31358065E-28
   3.50000001E-02  -9.77819862E-28
   3.59999985E-02  -1.47891833E-27
   3.70000005E-02  -2.18446081E-27
   3.79999988E-02  -3.15021819E-27
   3.90000008E-02  -4.43252815E-27
   3.99999991E-02  -6.07825609E-27
   4.10000011E-02  -8.10817200E-27
   4.19999994E-02  -1.04914279E-26
   4.30000015E-02  -1.31085047E-26
   4.39999998E-02  -1.56998835E-26
   4.50000018E-02  -1.77978175E-26
   4.60000001E-02  -1.86391392E-26
   4.69999984E-02  -1.70581572E-26
   4.80000004E-02  -1.13605608E-26
   4.89999987E-02   8.17952462E-28
   5.00000007E-02   2.26608584E-26
   5.09999990E-02   5.83153345E-26
   5.20000011E-02   1.13013372E-25
   5.29999994E-02   1.93143693E-25
   5.40000014E-02   3.06240611E-25
   5.49999997E-02   4.60847315E-25
   5.60000017E-02   6.66203290E-25
   5.70000000E-02   9.31698076E-25
   5.79999983E-02   1.26603034E-24
   5.90000004E-02   1.67601033E-24
   5.99999987E-02   2.16494730E-24
   6.10000007E-02   2.73058187E-24
   6.19999990E-02   3.36253815E-24
   6.30000010E-02   4.03931178E-24
   6.40000030E-02   4.72485242E-24
   6.49999976E-02   5.36486276E-24
   6.59999996E-02   5.88300672E-24
   6.70000017E-02   6.17731179E-24
   6.80000037E-02   6.11714379E-24
   6.89999983E-02   5.54123510E-24
   7.00000003E-02   4.25735214E-24
   7.10000023E-02   2.04427880E-24
   7.19999969E-02  -1.34314870E-24
   7.29999989E-02  -6.16516412E-24
   7.40000010E-02  -1.26835762E-23
   7.50000030E-02  -2.11429869E-23
   7.59999976E-02  -3.17461736E-23
   7.69999996E-02  -4.46233560E-23
   7.80000016E-02  -5.97954294E-23
   7.90000036E-02  -7.71317522E-23
   7.99999982E-02  -9.63036155E-23
   8.10000002E-02  -1.16735258E-22
   8.20000023E-02  -1.37555115E-22
   8.29999968E-02  -1.57550808E-22
   8.39999989E-02  -1.75132296E-22
   8.50000009E-02  -1.88308419E-22
   8.60000029E-02  -1.94682806E-22
   8.69999975E-02  -1.91475752E-22
   8.79999995E-02  -1.75578728E-22
   8.90000015E-02  -1.43648176E-22
   9.00000036E-02  -9.22446043E-23
   9.09999982E-02  -1.80216000E-23
   9.20000002E-02   8.20324906E-23
   9.30000022E-02   2.10300169E-22
   9.39999968E-02   3.68191096E-22
   9.49999988E-02   5.55756723E-22
   9.60000008E-02   7.71276148E-22
   9.70000029E-02   1.01083127E-21
   9.79999974E-02   1.26789521E-21
   9.89999995E-02   1.53296348E-21
  0.100000001       1.79326456E-21
  0.101000004       2.03258855E-21
  0.101999998       2.23127891E-21
  0.103000000       2.36643226E-21
  0.104000002       2.41235028E-21
  0.104999997       2.34128525E-21
  0.105999999       2.12451223E-21
  0.107000001       1.73374936E-21
  0.108000003       1.14293318E-21
  0.108999997       3.30335416E-22
  0.109999999      -7.19019780E-22
  0.111000001      -2.01070017E-21
  0.112000003      -3.53807201E-21
  0.112999998      -5.27949924E-21
  0.114000000      -7.19569504E-21
  0.115000002      -9.22742511E-21
  0.115999997      -1.12937861E-20
  0.116999999      -1.32912940E-20
  0.118000001      -1.50940477E-20
  0.119000003      -1.65552154E-20
  0.119999997      -1.75100791E-20
  0.120999999      -1.77808466E-20
  0.122000001      -1.71833799E-20
  0.123000003      -1.55359108E-20
  0.123999998      -1.26697251E-20
  0.125000000      -8.44168107E-21
  0.126000002      -2.74828315E-21
  0.127000004       4.45911823E-21
  0.128000006       1.31585824E-20
  0.128999993       2.32420433E-20
  0.129999995       3.45009052E-20
  0.130999997       4.66138053E-20
  0.131999999       5.91377269E-20
  0.133000001       7.15037087E-20
  0.134000003       8.30184248E-20
  0.135000005       9.28728536E-20
  0.136000007       1.00159145E-19
  0.136999995       1.03896606E-19
  0.137999997       1.03067402E-19
  0.138999999       9.66621938E-20
  0.140000001       8.37354417E-20
  0.141000003       6.34695232E-20
  0.142000005       3.52461433E-20
  0.143000007      -1.27712971E-21
  0.143999994      -4.60881837E-20
  0.144999996      -9.87431993E-20
  0.145999998      -1.58295357E-19
  0.147000000      -2.23234386E-19
  0.148000002      -2.91442303E-19
  0.149000004      -3.60171215E-19
  0.150000006      -4.26048525E-19
  0.150999993      -4.85115373E-19
  0.151999995      -5.32902838E-19
  0.152999997      -5.64549941E-19
  0.153999999      -5.74965696E-19
  0.155000001      -5.59036265E-19
  0.156000003      -5.11875545E-19
  0.157000005      -4.29115349E-19
  0.158000007      -3.07228735E-19
  0.158999994      -1.43876681E-19
  0.159999996       6.17346217E-20
  0.160999998       3.08501197E-19
  0.162000000       5.93091963E-19
  0.163000003       9.09663134E-19
  0.164000005       1.24963954E-18
  0.165000007       1.60158524E-18
  0.165999994       1.95118796E-18
  0.166999996       2.28137985E-18
  0.167999998       2.57261277E-18
  0.169000000       2.80330600E-18
  0.170000002       2.95047673E-18
  0.171000004       2.99055653E-18
  0.172000006       2.90038991E-18
  0.172999993       2.65840112E-18
  0.173999995       2.24590393E-18
  0.174999997       1.64851978E-18
  0.175999999       8.57656635E-19
  0.177000001      -1.28010542E-19
  0.178000003      -1.30112615E-18
  0.179000005      -2.64438558E-18
  0.180000007      -4.12949696E-18
  0.180999994      -5.71646282E-18
  0.181999996      -7.35326920E-18
  0.182999998      -8.97607266E-18
  0.184000000      -1.05099616E-17
  0.185000002      -1.18703528E-17
  0.186000004      -1.29650767E-17
  0.187000006      -1.36971729E-17
  0.187999994      -1.39683839E-17
  0.188999996      -1.36833201E-17
  0.189999998      -1.27542110E-17
  0.191000000      -1.11061297E-17
  0.192000002      -8.68253852E-18
  0.193000004      -5.45095645E-18
  0.194000006      -1.40852149E-18
  0.194999993       3.41283120E-18
  0.195999995       8.94186047E-18
  0.196999997       1.50644876E-17
  0.197999999       2.16215682E-17
  0.199000001       2.84082707E-17
  0.200000003       3.51753559E-17
  0.201000005       4.16326057E-17
  0.202000007       4.74545940E-17
  0.202999994       5.22889254E-17
  0.203999996       5.57669618E-17
  0.204999998       5.75170047E-17
  0.206000000       5.71796606E-17
  0.207000002       5.44251756E-17
  0.208000004       4.89722256E-17
  0.209000006       4.06075668E-17
  0.209999993       2.92058648E-17
  0.210999995       1.47488901E-17
  0.211999997      -2.65689668E-18
  0.213000000      -2.27653257E-17
  0.214000002      -4.51791128E-17
  0.215000004      -6.93431066E-17
  0.216000006      -9.45431838E-17
  0.216999993      -1.19911649E-16
  0.217999995      -1.44439923E-16
  0.218999997      -1.66999070E-16
  0.219999999      -1.86368451E-16
  0.221000001      -2.01272419E-16
  0.222000003      -2.10424808E-16
  0.223000005      -2.12580441E-16
  0.224000007      -2.06592474E-16
  0.224999994      -1.91474034E-16
  0.225999996      -1.66462263E-16
  0.226999998      -1.31082385E-16
  0.228000000      -8.52090859E-17
  0.229000002      -2.91223824E-17
  0.230000004       3.64452171E-17
  0.231000006       1.10273393E-16
  0.231999993       1.90633672E-16
  0.232999995       2.75287005E-16
  0.233999997       3.61501856E-16
  0.234999999       4.46094772E-16
  0.236000001       5.25495323E-16
  0.237000003       5.95835374E-16
  0.238000005       6.53062932E-16
  0.238999993       6.93079256E-16
  0.239999995       7.11896305E-16
  0.240999997       7.05811326E-16
  0.241999999       6.71593789E-16
  0.243000001       6.06678349E-16
  0.244000003       5.09357122E-16
  0.245000005       3.78963335E-16
  0.246000007       2.16037765E-16
  0.246999994       2.24690577E-17
  0.247999996      -1.98401321E-16
  0.248999998      -4.41718100E-16
  0.250000000      -7.01103676E-16
  0.250999987      -9.68708912E-16
  0.252000004      -1.23532873E-15
  0.252999991      -1.49058645E-15
  0.254000008      -1.72318837E-15
  0.254999995      -1.92124733E-15
  0.256000012      -2.07267078E-15
  0.256999999      -2.16560596E-15
  0.257999986      -2.18893261E-15
  0.259000003      -2.13278852E-15
  0.259999990      -1.98911203E-15
  0.261000007      -1.75218146E-15
  0.261999995      -1.41912980E-15
  0.263000011      -9.90412438E-16
  0.263999999      -4.70202071E-16
  0.264999986       1.33312583E-16
  0.266000003       8.07747506E-16
  0.266999990       1.53648621E-15
  0.268000007       2.29880168E-15
  0.268999994       3.07015244E-15
  0.270000011       3.82266266E-15
  0.270999998       4.52578767E-15
  0.272000015       5.14716426E-15
  0.273000002       5.65362813E-15
  0.273999989       6.01238513E-15
  0.275000006       6.19230678E-15
  0.275999993       6.16531184E-15
  0.277000010       5.90779223E-15
  0.277999997       5.40203351E-15
  0.279000014       4.63757357E-15
  0.280000001       3.61244094E-15
  0.280999988       2.33420935E-15
  0.282000005       8.20809972E-16
  0.282999992      -8.98961467E-16
  0.284000009      -2.78529145E-15
  0.284999996      -4.78759962E-15
  0.286000013      -6.84522561E-15
  0.287000000      -8.88857655E-15
  0.287999988      -1.08407410E-14
  0.289000005      -1.26195576E-14
  0.289999992      -1.41401173E-14
  0.291000009      -1.53176337E-14
  0.291999996      -1.60706341E-14
  0.293000013      -1.63243696E-14
  0.294000000      -1.60143386E-14
  0.294999987      -1.50898106E-14
  0.296000004      -1.35172110E-14
  0.296999991      -1.12832234E-14
  0.298000008      -8.39746516E-15
  0.298999995      -4.89458412E-15
  0.300000012      -8.35643319E-16
  0.300999999       3.69133655E-15
  0.301999986       8.57178708E-15
  0.303000003       1.36660313E-14
  0.303999990       1.88118191E-14
  0.305000007       2.38279567E-14
  0.305999994       2.85190200E-14
  0.307000011       3.26810858E-14
  0.307999998       3.61083572E-14
  0.308999985       3.86005518E-14
  0.310000002       3.99708173E-14
  0.310999990       4.00539621E-14
  0.312000006       3.87147115E-14
  0.312999994       3.58556975E-14
  0.314000010       3.14248309E-14
  0.314999998       2.54217491E-14
  0.316000015       1.79030036E-14
  0.317000002       8.98565077E-15
  0.317999989      -1.15101867E-15
  0.319000006      -1.22658689E-14
  0.319999993      -2.40586139E-14
  0.321000010      -3.61749476E-14
  0.321999997      -4.82141318E-14
  0.323000014      -5.97390315E-14
  0.324000001      -7.02884270E-14
  0.324999988      -7.93914020E-14
  0.326000005      -8.65834300E-14
  0.326999992      -9.14237625E-14
  0.328000009      -9.35135961E-14
  0.328999996      -9.25144022E-14
  0.330000013      -8.81658096E-14
  0.331000000      -8.03023013E-14
  0.331999987      -6.88680206E-14
  0.333000004      -5.39289852E-14
  0.333999991      -3.56820117E-14
  0.335000008      -1.44597401E-14
  0.335999995       9.26878593E-15
  0.337000012       3.49024127E-14
  0.338000000       6.17172939E-14
  0.338999987       8.88815660E-14
  0.340000004       1.15475229E-13
  0.340999991       1.40514960E-13
  0.342000008       1.62983369E-13
  0.342999995       1.81862080E-13
  0.344000012       1.96167775E-13
  0.344999999       2.04990091E-13
  0.345999986       2.07530214E-13
  0.347000003       2.03138911E-13
  0.347999990       1.91352441E-13
  0.349000007       1.71925015E-13
  0.349999994       1.44856187E-13
  0.351000011       1.10412025E-13
  0.351999998       6.91384951E-14
  0.352999985       2.18661132E-14
  0.354000002      -3.02950482E-14
  0.354999989      -8.59706729E-14
  0.356000006      -1.43548124E-13
  0.356999993      -2.01212853E-13
  0.358000010      -2.56994973E-13
  0.358999997      -3.08825068E-13
  0.360000014      -3.54597997E-13
  0.361000001      -3.92243177E-13
  0.361999989      -4.19799341E-13
  0.363000005      -4.35491378E-13
  0.363999993      -4.37806855E-13
  0.365000010      -4.25569356E-13
  0.365999997      -3.98005955E-13
  0.367000014      -3.54805974E-13
  0.368000001      -2.96168119E-13
  0.368999988      -2.22833565E-13
  0.370000005      -1.36102840E-13
  0.370999992      -3.78345765E-14
  0.372000009       6.95752050E-14
  0.372999996       1.83233989E-13
  0.374000013       2.99813885E-13
  0.375000000       4.15632399E-13
  0.375999987       5.26751440E-13
  0.377000004       6.29092752E-13
  0.377999991       7.18566211E-13
  0.379000008       7.91208299E-13
  0.379999995       8.43326331E-13
  0.381000012       8.71643740E-13
  0.381999999       8.73441727E-13
  0.382999986       8.46691857E-13
  0.384000003       7.90174512E-13
  0.384999990       7.03578200E-13
  0.386000007       5.87574694E-13
  0.386999995       4.43865973E-13
  0.388000011       2.75199487E-13
  0.388999999       8.53486864E-14
  0.389999986      -1.20942644E-13
  0.391000003      -3.38052774E-13
  0.391999990      -5.59610355E-13
  0.393000007      -7.78657249E-13
  0.393999994      -9.87841753E-13
  0.395000011      -1.17963820E-12
  0.395999998      -1.34658701E-12
  0.397000015      -1.48154828E-12
  0.398000002      -1.57796129E-12
  0.398999989      -1.63010144E-12
  0.400000006      -1.63332509E-12
  0.400999993      -1.58429487E-12
  0.402000010      -1.48117412E-12
  0.402999997      -1.32378429E-12
  0.404000014      -1.11371643E-12
  0.405000001      -8.54389855E-13
  0.405999988      -5.51053723E-13
  0.407000005      -2.10727432E-13
  0.407999992       1.57921988E-13
  0.409000009       5.44764863E-13
  0.409999996       9.38453850E-13
  0.411000013       1.32672443E-12
  0.412000000       1.69674333E-12
  0.412999988       2.03549720E-12
  0.414000005       2.33021003E-12
  0.414999992       2.56877679E-12
  0.416000009       2.74020043E-12
  0.416999996       2.83501694E-12
  0.418000013       2.84569417E-12
  0.419000000       2.76698955E-12
  0.419999987       2.59625221E-12
  0.421000004       2.33365627E-12
  0.421999991       1.98235438E-12
  0.423000008       1.54854113E-12
  0.423999995       1.04141934E-12
  0.425000012       4.73066464E-13
  0.425999999      -1.41801637E-13
  0.426999986      -7.86166163E-13
  0.428000003      -1.44113432E-12
  0.428999990      -2.08645232E-12
  0.430000007      -2.70109000E-12
  0.430999994      -3.26388179E-12
  0.432000011      -3.75420528E-12
  0.432999998      -4.15267647E-12
  0.433999985      -4.44184143E-12
  0.435000002      -4.60683835E-12
  0.435999990      -4.63600989E-12
  0.437000006      -4.52144095E-12
  0.437999994      -4.25940273E-12
  0.439000010      -3.85068149E-12
  0.439999998      -3.30077675E-12
  0.441000015      -2.61995655E-12
  0.442000002      -1.82316120E-12
  0.442999989      -9.29750959E-13
  0.444000006       3.69008752E-14
  0.444999993       1.04996437E-12
  0.446000010       2.07984606E-12
  0.446999997       3.09500385E-12
  0.448000014       4.06286246E-12
  0.449000001       4.95080279E-12
  0.449999988       5.72719823E-12
  0.451000005       6.36246741E-12
  0.451999992       6.83010419E-12
  0.453000009       7.10766038E-12
  0.453999996       7.17763739E-12
  0.455000013       7.02826079E-12
  0.456000000       6.65410609E-12
  0.456999987       6.05654849E-12
  0.458000004       5.24401616E-12
  0.458999991       4.23203009E-12
  0.460000008       3.04302026E-12
  0.460999995       1.70591622E-12
  0.462000012       2.55515281E-13
  0.463000000      -1.26836096E-12
  0.463999987      -2.82190200E-12
  0.465000004      -4.35851051E-12
  0.465999991      -5.83014106E-12
  0.467000008      -7.18873615E-12
  0.467999995      -8.38771934E-12
  0.469000012      -9.38349658E-12
  0.469999999      -1.01369286E-11
  0.470999986      -1.06147148E-11
  0.472000003      -1.07906496E-11
  0.472999990      -1.06467066E-11
  0.474000007      -1.01739069E-11
  0.474999994      -9.37293992E-12
  0.476000011      -8.25451166E-12
  0.476999998      -6.83939320E-12
  0.477999985      -5.15816036E-12
  0.479000002      -3.25062676E-12
  0.479999989      -1.16497220E-12
  0.481000006       1.04341470E-12
  0.481999993       3.31335155E-12
  0.483000010       5.57950474E-12
  0.483999997       7.77421010E-12
  0.485000014       9.82942807E-12
  0.486000001       1.16787673E-11
  0.486999989       1.32595332E-11
  0.488000005       1.45147254E-11
  0.488999993       1.53949284E-11
  0.490000010       1.58600372E-11
  0.490999997       1.58807550E-11
  0.492000014       1.54398144E-11
  0.493000001       1.45328810E-11
  0.493999988       1.31691021E-11
  0.495000005       1.13712702E-11
  0.495999992       9.17558737E-12
  0.497000009       6.63102949E-12
  0.497999996       3.79832017E-12
  0.499000013       7.48529277E-13
  0.500000000      -2.43867079E-12
  0.500999987      -5.67704651E-12
  0.501999974      -8.87609170E-12
  0.503000021      -1.19435017E-11
  0.504000008      -1.47877665E-11
  0.504999995      -1.73208115E-11
  0.505999982      -1.94606067E-11
  0.507000029      -2.11336781E-11
  0.508000016      -2.22774351E-11
  0.509000003      -2.28422455E-11
  0.509999990      -2.27932031E-11
  0.510999978      -2.21115244E-11
  0.512000024      -2.07955216E-11
  0.513000011      -1.88611193E-11
  0.513999999      -1.63418983E-11
  0.514999986      -1.32886419E-11
  0.515999973      -9.76839269E-12
  0.517000020      -5.86303835E-12
  0.518000007      -1.66745177E-12
  0.518999994       2.71277076E-12
  0.519999981       7.16392180E-12
  0.521000028       1.15670789E-11
  0.522000015       1.58012093E-11
  0.523000002       1.97464128E-11
  0.523999989       2.32872055E-11
  0.524999976       2.63157655E-11
  0.526000023       2.87350473E-11
  0.527000010       3.04616853E-11
  0.527999997       3.14285958E-11
  0.528999984       3.15872120E-11
  0.529999971       3.09092717E-11
  0.531000018       2.93881169E-11
  0.532000005       2.70394505E-11
  0.532999992       2.39015179E-11
  0.533999979       2.00346961E-11
  0.535000026       1.55204981E-11
  0.536000013       1.04599896E-11
  0.537000000       4.97165243E-12
  0.537999988      -8.11263817E-13
  0.538999975      -6.74384160E-12
  0.540000021      -1.26729859E-11
  0.541000009      -1.84412242E-11
  0.541999996      -2.38907297E-11
  0.542999983      -2.88674466E-11
  0.544000030      -3.32252628E-11
  0.545000017      -3.68300772E-11
  0.546000004      -3.95636857E-11
  0.546999991      -4.13273617E-11
  0.547999978      -4.20450445E-11
  0.549000025      -4.16660526E-11
  0.550000012      -4.01672029E-11
  0.550999999      -3.75542826E-11
  0.551999986      -3.38628570E-11
  0.552999973      -2.91582800E-11
  0.554000020      -2.35349518E-11
  0.555000007      -1.71148078E-11
  0.555999994      -1.00450195E-11
  0.556999981      -2.49496691E-12
  0.558000028       5.34748548E-12
  0.559000015       1.32803248E-11
  0.560000002       2.10922599E-11
  0.560999990       2.85680143E-11
  0.561999977       3.54939238E-11
  0.563000023       4.16637141E-11
  0.564000010       4.68842881E-11
  0.564999998       5.09814066E-11
  0.565999985       5.38050889E-11
  0.566999972       5.52345704E-11
  0.568000019       5.51826952E-11
  0.569000006       5.35995762E-11
  0.569999993       5.04753982E-11
  0.570999980       4.58422675E-11
  0.572000027       3.97749993E-11
  0.573000014       3.23907776E-11
  0.574000001       2.38476339E-11
  0.574999988       1.43417665E-11
  0.575999975       4.10368180E-12
  0.577000022      -6.60676982E-12
  0.578000009      -1.75063818E-11
  0.578999996      -2.82954910E-11
  0.579999983      -3.86656332E-11
  0.580999970      -4.83077918E-11
  0.582000017      -5.69209992E-11
  0.583000004      -6.42211354E-11
  0.583999991      -6.99496086E-11
  0.584999979      -7.38817271E-11
  0.586000025      -7.58344915E-11
  0.587000012      -7.56735230E-11
  0.588000000      -7.33189620E-11
  0.588999987      -6.87500681E-11
  0.589999974      -6.20083360E-11
  0.591000021      -5.31989904E-11
  0.592000008      -4.24907089E-11
  0.592999995      -3.01135332E-11
  0.593999982      -1.63549087E-11
  0.595000029      -1.55391238E-12
  0.596000016       1.39062754E-11
  0.597000003       2.96074935E-11
  0.597999990       4.51071402E-11
  0.598999977       5.99498784E-11
  0.600000024       7.36802286E-11
  0.601000011       8.58557184E-11
  0.601999998       9.60602084E-11
  0.602999985       1.03917049E-10
  0.603999972       1.09101637E-10
  0.605000019       1.11352996E-10
  0.606000006       1.10483997E-10
  0.606999993       1.06389862E-10
  0.607999980       9.90545909E-11
  0.609000027       8.85550730E-11
  0.610000014       7.50626783E-11
  0.611000001       5.88421048E-11
  0.611999989       4.02474512E-11
  0.612999976       1.97155417E-11
  0.614000022      -2.24348925E-12
  0.615000010      -2.50581188E-11
  0.615999997      -4.81096413E-11
  0.616999984      -7.07482961E-11
  0.617999971      -9.23109783E-11
  0.619000018      -1.12139992E-10
  0.620000005      -1.29602384E-10
  0.620999992      -1.44109280E-10
  0.621999979      -1.55134613E-10
  0.623000026      -1.62232783E-10
  0.624000013      -1.65054539E-10
  0.625000000      -1.63360617E-10
  0.625999987      -1.57032665E-10
  0.626999974      -1.46080967E-10
  0.628000021      -1.30648672E-10
  0.629000008      -1.11012276E-10
  0.629999995      -8.75781808E-11
  0.630999982      -6.08753603E-11
  0.632000029      -3.15441319E-11
  0.633000016      -3.21288135E-13
  0.634000003       3.19780591E-11
  0.634999990       6.44815590E-11
  0.635999978       9.62830232E-11
  0.637000024       1.26467600E-10
  0.638000011       1.54137966E-10
  0.638999999       1.78440790E-10
  0.639999986       1.98592753E-10
  0.640999973       2.13905268E-10
  0.642000020       2.23807181E-10
  0.643000007       2.27864658E-10
  0.643999994       2.25797617E-10
  0.644999981       2.17492177E-10
  0.646000028       2.03008568E-10
  0.647000015       1.82584128E-10
  0.648000002       1.56631250E-10
  0.648999989       1.25730135E-10
  0.649999976       9.06164727E-11
  0.651000023       5.21642521E-11
  0.652000010       1.13640902E-11
  0.652999997      -3.07023677E-11
  0.653999984      -7.28913527E-11
  0.654999971      -1.14028356E-10
  0.656000018      -1.52941174E-10
  0.657000005      -1.88493693E-10
  0.657999992      -2.19619309E-10
  0.658999979      -2.45353210E-10
  0.660000026      -2.64862299E-10
  0.661000013      -2.77472018E-10
  0.662000000      -2.82689178E-10
  0.662999988      -2.80219875E-10
  0.663999975      -2.69982092E-10
  0.665000021      -2.52112414E-10
  0.666000009      -2.26966543E-10
  0.666999996      -1.95113453E-10
  0.667999983      -1.57323252E-10
  0.669000030      -1.14549023E-10
  0.670000017      -6.79030096E-11
  0.671000004      -1.86277348E-11
  0.671999991       3.19371057E-11
  0.672999978       8.23911911E-11
  0.674000025       1.31312516E-10
  0.675000012       1.77297607E-10
  0.675999999       2.19001969E-10
  0.676999986       2.55179405E-10
  0.677999973       2.84719248E-10
  0.679000020       3.06680292E-10
  0.680000007       3.20320437E-10
  0.680999994       3.25121041E-10
  0.681999981       3.20805243E-10
  0.683000028       3.07349785E-10
  0.684000015       2.84989699E-10
  0.685000002       2.54215621E-10
  0.685999990       2.15763907E-10
  0.686999977       1.70599562E-10
  0.688000023       1.19892388E-10
  0.689000010       6.49870574E-11
  0.689999998       7.36780428E-12
  0.690999985      -5.13814200E-11
  0.691999972      -1.09620049E-10
  0.693000019      -1.65696221E-10
  0.694000006      -2.17993026E-10
  0.694999993      -2.64974376E-10
  0.695999980      -3.05229286E-10
  0.697000027      -3.37513073E-10
  0.698000014      -3.60784541E-10
  0.699000001      -3.74237918E-10
  0.699999988      -3.77328668E-10
  0.700999975      -3.69792308E-10
  0.702000022      -3.51655732E-10
  0.703000009      -3.23240573E-10
  0.703999996      -2.85158425E-10
  0.704999983      -2.38298048E-10
  0.705999970      -1.83804777E-10
  0.707000017      -1.23052540E-10
  0.708000004      -5.76094068E-11
  0.708999991       1.08027025E-11
  0.709999979       8.03529465E-11
  0.711000025       1.49150026E-10
  0.712000012       2.15292867E-10
  0.713000000       2.76922096E-10
  0.713999987       3.32271127E-10
  0.714999974       3.79715204E-10
  0.716000021       4.17817392E-10
  0.717000008       4.45369797E-10
  0.717999995       4.61429422E-10
  0.718999982       4.65347122E-10
  0.720000029       4.56789218E-10
  0.721000016       4.35750880E-10
  0.722000003       4.02560874E-10
  0.722999990       3.57877644E-10
  0.723999977       3.02676578E-10
  0.725000024       2.38228687E-10
  0.726000011       1.66071254E-10
  0.726999998       8.79711651E-11
  0.727999985       5.88171872E-12
  0.728999972      -7.81059800E-11
  0.730000019      -1.61815839E-10
  0.731000006      -2.43042503E-10
  0.731999993      -3.19608534E-10
  0.732999980      -3.89421578E-10
  0.734000027      -4.50530169E-10
  0.735000014      -5.01176600E-10
  0.736000001      -5.39845335E-10
  0.736999989      -5.65306024E-10
  0.737999976      -5.76649783E-10
  0.739000022      -5.73317505E-10
  0.740000010      -5.55119672E-10
  0.740999997      -5.22247134E-10
  0.741999984      -4.75272099E-10
  0.742999971      -4.15139478E-10
  0.744000018      -3.43148676E-10
  0.745000005      -2.60925892E-10
  0.745999992      -1.70387759E-10
  0.746999979      -7.36971456E-11
  0.748000026       2.67880509E-11
  0.749000013       1.28571903E-10
  0.750000000       2.29081726E-10
  0.750999987       3.25732302E-10
  0.751999974       4.15991519E-10
  0.753000021       4.97445585E-10
  0.754000008       5.67862313E-10
  0.754999995       6.25251018E-10
  0.755999982       6.67916944E-10
  0.757000029       6.94509450E-10
  0.758000016       7.04062253E-10
  0.759000003       6.96024349E-10
  0.759999990       6.70281275E-10
  0.760999978       6.27165542E-10
  0.762000024       5.67455916E-10
  0.763000011       4.92365648E-10
  0.763999999       4.03519190E-10
  0.764999986       3.02918246E-10
  0.765999973       1.92897726E-10
  0.767000020       7.60724192E-11
  0.768000007      -4.47243145E-11
  0.768999994      -1.66508571E-10
  0.769999981      -2.86218854E-10
  0.771000028      -4.00792372E-10
  0.772000015      -5.07242692E-10
  0.773000002      -6.02736971E-10
  0.773999989      -6.84670431E-10
  0.774999976      -7.50736695E-10
  0.776000023      -7.98991651E-10
  0.777000010      -8.27909186E-10
  0.777999997      -8.36427483E-10
  0.778999984      -8.23984159E-10
  0.779999971      -7.90539412E-10
  0.781000018      -7.36586236E-10
  0.782000005      -6.63147148E-10
  0.782999992      -5.71757641E-10
  0.783999979      -4.64435823E-10
  0.785000026      -3.43639450E-10
  0.786000013      -2.12211013E-10
  0.787000000      -7.33117803E-11
  0.787999988       6.96532207E-11
  0.788999975       2.13117940E-10
  0.790000021       3.53443552E-10
  0.791000009       4.87009932E-10
  0.791999996       6.10308526E-10
  0.792999983       7.20033533E-10
  0.794000030       8.13169698E-10
  0.795000017       8.87073970E-10
  0.796000004       9.39548883E-10
  0.796999991       9.68905733E-10
  0.797999978       9.74015757E-10
  0.799000025       9.54347379E-10
  0.800000012       9.09989140E-10
  0.800999999       8.41656356E-10
  0.801999986       7.50682183E-10
  0.802999973       6.38992415E-10
  0.804000020       5.09064457E-10
  0.805000007       3.63871544E-10
  0.805999994       2.06813192E-10
  0.806999981       4.16336132E-11
  0.808000028      -1.27670124E-10
  0.809000015      -2.96947744E-10
  0.810000002      -4.62000854E-10
  0.810999990      -6.18690821E-10
  0.811999977      -7.63046737E-10
  0.813000023      -8.91370422E-10
  0.814000010      -1.00033581E-09
  0.814999998      -1.08707998E-09
  0.815999985      -1.14928378E-09
  0.816999972      -1.18523902E-09
  0.818000019      -1.19390053E-09
  0.819000006      -1.17492194E-09
  0.819999993      -1.12867360E-09
  0.820999980      -1.05624209E-09
  0.822000027      -9.59410773E-10
  0.823000014      -8.40621905E-10
  0.824000001      -7.02921166E-10
  0.824999988      -5.49885470E-10
  0.825999975      -3.85535964E-10
  0.827000022      -2.14238183E-10
  0.828000009      -4.05917314E-11
  0.828999996       1.30687627E-10
  0.829999983       2.94890556E-10
  0.830999970       4.47438087E-10
  0.832000017       5.84004289E-10
  0.833000004       7.00633551E-10
  0.833999991       7.93849930E-10
  0.834999979       8.60755578E-10
  0.836000025       8.99115338E-10
  0.837000012       9.07425024E-10
  0.838000000       8.84961604E-10
  0.838999987       8.31813618E-10
  0.839999974       7.48890672E-10
  0.841000021       6.37911723E-10
  0.842000008       5.01371833E-10
  0.842999995       3.42487982E-10
  0.843999982       1.65125413E-10
  0.845000029      -2.62943070E-11
  0.846000016      -2.26901026E-10
  0.847000003      -4.31497227E-10
  0.847999990      -6.34689579E-10
  0.848999977      -8.31027636E-10
  0.850000024      -1.01514630E-09
  0.851000011      -1.18190790E-09
  0.851999998      -1.32654088E-09
  0.852999985      -1.44477097E-09
  0.853999972      -1.53294122E-09
  0.855000019      -1.58811797E-09
  0.856000006      -1.60817981E-09