   0.00000000       0.00000000    
   1.00000005E-03   0.00000000    
   2.00000009E-03   0.00000000    
   3.00000003E-03   0.00000000    
   4.00000019E-03   0.00000000    
   4.99999989E-03   0.00000000    
   6.00000005E-03   0.00000000    
   7.00000022E-03   0.00000000    
   8.00000038E-03   0.00000000    
   8.99999961E-03   0.00000000    
   9.99999978E-03   0.00000000    
   1.09999999E-02   0.00000000    
   1.20000001E-02   3.41415385E-37
   1.30000003E-02   3.19288093E-36
   1.40000004E-02   1.75920335E-35
   1.49999997E-02   7.55051475E-35
   1.60000008E-02   2.79694830E-34
   1.70000009E-02   9.22807973E-34
   1.79999992E-02   2.78763563E-33
   1.89999994E-02   7.83962235E-33
   1.99999996E-02   2.06848758E-32
   2.09999997E-02   5.15058249E-32
   2.19999999E-02   1.21687199E-31
   2.30000000E-02   2.74077064E-31
   2.40000002E-02   5.90882548E-31
   2.50000004E-02   1.22357677E-30
   2.60000005E-02   2.44084988E-30
   2.70000007E-02   4.70239832E-30
   2.80000009E-02   8.76782466E-30
   2.89999992E-02   1.58504561E-29
   2.99999993E-02   2.78243763E-29
   3.09999995E-02   4.74878533E-29
   3.20000015E-02   7.88754979E-29
   3.29999998E-02   1.27592161E-28
   3.40000018E-02   2.01110540E-28
   3.50000001E-02   3.08928600E-28
   3.59999985E-02   4.62417994E-28
   3.70000005E-02   6.74110147E-28
   3.79999988E-02   9.56060128E-28
   3.90000008E-02   1.31680337E-27
   3.99999991E-02   1.75628595E-27
   4.10000011E-02   2.25801650E-27
   4.19999994E-02   2.77758156E-27
   4.30000015E-02   3.22662002E-27
   4.39999998E-02   3.45140821E-27
   4.50000018E-02   3.20542285E-27
   4.60000001E-02   2.11568913E-27
   4.69999984E-02  -3.56534218E-28
   4.80000004E-02  -4.95907085E-27
   4.89999987E-02  -1.26929137E-26
   5.00000007E-02  -2.48517932E-26
   5.09999990E-02  -4.30493907E-26
   5.20000011E-02  -6.92233086E-26
   5.29999994E-02  -1.05601518E-25
   5.40000014E-02  -1.54613446E-25
   5.49999997E-02  -2.18724554E-25
   5.60000017E-02  -3.00170622E-25
   5.70000000E-02  -4.00566188E-25
   5.79999983E-02  -5.20362975E-25
   5.90000004E-02  -6.58136792E-25
   5.99999987E-02  -8.09689693E-25
   6.10000007E-02  -9.66966568E-25
   6.19999990E-02  -1.11680350E-24
   6.30000010E-02  -1.23955114E-24
   6.40000030E-02  -1.30764867E-24
   6.49999976E-02  -1.28426388E-24
   6.59999996E-02  -1.12216105E-24
   6.70000017E-02  -7.63010229E-25
   6.80000037E-02  -1.37404039E-25
   6.89999983E-02   8.34100303E-25
   7.00000003E-02   2.23855118E-24
   7.10000023E-02   4.16639530E-24
   7.19999969E-02   6.70509445E-24
   7.29999989E-02   9.93019370E-24
   7.40000010E-02   1.38935382E-23
   7.50000030E-02   1.86084588E-23
   7.59999976E-02   2.40319123E-23
   7.69999996E-02   3.00438496E-23
   7.80000016E-02   3.64243807E-23
   7.90000036E-02   4.28297135E-23
   7.99999982E-02   4.87683309E-23
   8.10000002E-02   5.35793885E-23
   8.20000023E-02   5.64158673E-23
   8.29999968E-02   5.62355778E-23
   8.39999989E-02   5.18036595E-23
   8.50000009E-02   4.17105849E-23
   8.60000029E-02   2.44099565E-23
   8.69999975E-02  -1.71956216E-24
   8.79999995E-02  -3.82841960E-23
   8.90000015E-02  -8.67535581E-23
   9.00000036E-02  -1.48305547E-22
   9.09999982E-02  -2.23637195E-22
   9.20000002E-02  -3.12743363E-22
   9.30000022E-02  -4.14667979E-22
   9.39999968E-02  -5.27235956E-22
   9.49999988E-02  -6.46778246E-22
   9.60000008E-02  -7.67866502E-22
   9.70000029E-02  -8.83078514E-22
   9.79999974E-02  -9.82820118E-22
   9.89999995E-02  -1.05523396E-21
  0.100000001      -1.08622789E-21
  0.101000004      -1.05965855E-21
  0.101999998      -9.57706926E-22
  0.103000000      -7.61478925E-22
  0.104000002      -4.51861344E-22
  0.104999997      -1.06549739E-23
  0.105999999       5.78004671E-22
  0.107000001       1.32594376E-21
  0.108000003       2.23898768E-21
  0.108999997       3.31478676E-21
  0.109999999       4.54050303E-21
  0.111000001       5.89046260E-21
  0.112000003       7.32390238E-21
  0.112999998       8.78297951E-21
  0.114000000       1.01912319E-20
  0.115000002       1.14527066E-20
  0.115999997       1.24519908E-20
  0.116999999       1.30553868E-20
  0.118000001       1.31134679E-20
  0.119000003       1.24652386E-20
  0.119999997       1.09440737E-20
  0.120999999       8.38556285E-21
  0.122000001       4.63731184E-21
  0.123000003      -4.29361062E-22
  0.123999998      -6.90600815E-21
  0.125000000      -1.48322256E-20
  0.126000002      -2.41798997E-20
  0.127000004      -3.48371671E-20
  0.128000006      -4.65928964E-20
  0.128999993      -5.91226826E-20
  0.129999995      -7.19774700E-20
  0.130999997      -8.45760705E-20
  0.131999999      -9.62029082E-20
  0.133000001      -1.06012346E-19
  0.134000003      -1.13040900E-19
  0.135000005      -1.16228595E-19
  0.136000007      -1.14450390E-19
  0.136999995      -1.06558356E-19
  0.137999997      -9.14348712E-20
  0.138999999      -6.80565692E-20
  0.140000001      -3.55681266E-20
  0.141000003       6.63569780E-21
  0.142000005       5.88221705E-20
  0.143000007       1.20830020E-19
  0.143999994       1.91980193E-19
  0.144999996       2.70992744E-19
  0.145999998       3.55915474E-19
  0.147000000       4.44070102E-19
  0.148000002       5.32022666E-19
  0.149000004       6.15584658E-19
  0.150000006       6.89851053E-19
  0.150999993       7.49281395E-19
  0.151999995       7.87828219E-19
  0.152999997       7.99117011E-19
  0.153999999       7.76678600E-19
  0.155000001       7.14234115E-19
  0.156000003       6.06028603E-19
  0.157000005       4.47207237E-19
  0.158000007       2.34224721E-19
  0.158999994      -3.47251972E-20
  0.159999996      -3.59276697E-19
  0.160999998      -7.36475037E-19
  0.162000000      -1.16039812E-18
  0.163000003      -1.62184196E-18
  0.164000005      -2.10809667E-18
  0.165000007      -2.60284022E-18
  0.165999994      -3.08617674E-18
  0.166999996      -3.53484426E-18
  0.167999998      -3.92261371E-18
  0.169000000      -4.22089504E-18
  0.170000002      -4.39956068E-18
  0.171000004      -4.42798922E-18
  0.172000006      -4.27631904E-18
  0.172999993      -3.91689293E-18
  0.173999995      -3.32586473E-18
  0.174999997      -2.48492190E-18
  0.175999999      -1.38306739E-18
  0.177000001      -1.83937051E-20
  0.178000003       1.60023187E-18
  0.179000005       3.45166091E-18
  0.180000007       5.50123249E-18
  0.180999994       7.69991413E-18
  0.181999996       9.98391862E-18
  0.182999998       1.22748896E-17
  0.184000000       1.44807363E-17
  0.185000002       1.64971991E-17
  0.186000004       1.82101810E-17
  0.187000006       1.94988738E-17
  0.187999994       2.02396819E-17
  0.188999996       2.03108823E-17
  0.189999998       1.95979452E-17
  0.191000000       1.79994038E-17
  0.192000002       1.54330925E-17
  0.193000004       1.18425529E-17
  0.194000006       7.20337002E-18
  0.194999993       1.52914903E-18
  0.195999995      -5.12315636E-18
  0.196999997      -1.26488969E-17
  0.197999999      -2.08926748E-17
  0.199000001      -2.96469175E-17
  0.200000003      -3.86523534E-17
  0.201000005      -4.76006642E-17
  0.202000007      -5.61395107E-17
  0.202999994      -6.38800485E-17
  0.203999996      -7.04070065E-17
  0.204999998      -7.52912565E-17
  0.206000000      -7.81047095E-17
  0.207000002      -7.84372759E-17
  0.208000004      -7.59154470E-17
  0.209000006      -7.02220026E-17
  0.209999993      -6.11162065E-17
  0.210999995      -4.84536992E-17
  0.211999997      -3.22052945E-17
  0.213000000      -1.24737711E-17
  0.214000002       1.04922931E-17
  0.215000004       3.62885524E-17
  0.216000006       6.43497018E-17
  0.216999993       9.39499034E-17
  0.217999995       1.24209441E-16
  0.218999997       1.54108261E-16
  0.219999999       1.82506616E-16
  0.221000001       2.08172945E-16
  0.222000003       2.29818779E-16
  0.223000005       2.46140125E-16
  0.224000007       2.55864592E-16
  0.224999994       2.57803001E-16
  0.225999996       2.50904050E-16
  0.226999998       2.34310463E-16
  0.228000000       2.07414281E-16
  0.229000002       1.69909290E-16
  0.230000004       1.21838225E-16
  0.231000006       6.36322384E-17
  0.231999993      -3.85965783E-18
  0.232999995      -7.93535140E-17
  0.233999997      -1.61127689E-16
  0.234999999      -2.47036259E-16
  0.236000001      -3.34539659E-16
  0.237000003      -4.20753452E-16
  0.238000005      -5.02515213E-16
  0.238999993      -5.76469130E-16
  0.239999995      -6.39166509E-16
  0.240999997      -6.87180995E-16
  0.241999999      -7.17234783E-16
  0.243000001      -7.26332552E-16
  0.244000003      -7.11899058E-16
  0.245000005      -6.71915609E-16
  0.246000007      -6.05049875E-16
  0.246999994      -5.10773626E-16
  0.247999996      -3.89463314E-16
  0.248999998      -2.42477369E-16
  0.250000000      -7.22053699E-17
  0.250999987       1.17915165E-16
  0.252000004       3.23418567E-16
  0.252999991       5.38869708E-16
  0.254000008       7.57963357E-16
  0.254999995       9.73664161E-16
  0.256000012       1.17838578E-15
  0.256999999       1.36420617E-15
  0.257999986       1.52311474E-15
  0.259000003       1.64728426E-15
  0.259999990       1.72936102E-15
  0.261000007       1.76276334E-15
  0.261999995       1.74197842E-15
  0.263000011       1.66284670E-15
  0.263999999       1.52282273E-15
  0.264999986       1.32120040E-15
  0.266000003       1.05929210E-15
  0.266999990       7.40551059E-16
  0.268000007       3.70628398E-16
  0.268999994      -4.26425502E-17
  0.270000011      -4.89339933E-16
  0.270999998      -9.57627498E-16
  0.272000015      -1.43400931E-15
  0.273000002      -1.90366166E-15
  0.273999989      -2.35083618E-15
  0.275000006      -2.75932523E-15
  0.275999993      -3.11297737E-15
  0.277000010      -3.39624721E-15
  0.277999997      -3.59476421E-15
  0.279000014      -3.69590079E-15
  0.280000001      -3.68931722E-15
  0.280999988      -3.56746772E-15
  0.282000005      -3.32604173E-15
  0.282999992      -2.96432457E-15
  0.284000009      -2.48545661E-15
  0.284999996      -1.89657834E-15
  0.286000013      -1.20884688E-15
  0.287000000      -4.37316970E-16
  0.287999988       3.99317695E-16
  0.289000005       1.27912245E-15
  0.289999992       2.17745172E-15
  0.291000009       3.06760076E-15
  0.291999996       3.92156265E-15
  0.293000013       4.71086987E-15
  0.294000000       5.40749603E-15
  0.294999987       5.98478752E-15
  0.296000004       6.41839555E-15
  0.296999991       6.68717731E-15
  0.298000008       6.77403207E-15
  0.298999995       6.66663930E-15
  0.300000012       6.35807282E-15
  0.300999999       5.84726198E-15
  0.301999986       5.13927712E-15
  0.303000003       4.24542485E-15
  0.303999990       3.18314367E-15
  0.305000007       1.97569355E-15
  0.305999994       6.51644946E-16
  0.307000011      -7.55819569E-16
  0.307999998      -2.20977555E-15
  0.308999985      -3.67057111E-15
  0.310000002      -5.09695723E-15
  0.310999990      -6.44729419E-15
  0.312000006      -7.68079905E-15
  0.312999994      -8.75878739E-15
  0.314000010      -9.64587060E-15
  0.314999998      -1.03110684E-14
  0.316000015      -1.07287946E-14
  0.317000002      -1.08796808E-14
  0.317999989      -1.07512181E-14
  0.319000006      -1.03381854E-14
  0.319999993      -9.64285431E-15
  0.321000010      -8.67497009E-15
  0.321999997      -7.45150300E-15
  0.323000014      -5.99619197E-15
  0.324000001      -4.33889197E-15
  0.324999988      -2.51476205E-15
  0.326000005      -5.63319367E-16
  0.326999992       1.47259822E-15
  0.328000009       3.54792286E-15
  0.328999996       5.61645821E-15
  0.330000013       7.63195151E-15
  0.331000000       9.54910386E-15
  0.331999987       1.13244832E-14
  0.333000004       1.29173177E-14
  0.333999991       1.42901522E-14
  0.335000008       1.54093657E-14
  0.335999995       1.62455431E-14
  0.337000012       1.67737206E-14
  0.338000000       1.69735170E-14
  0.338999987       1.68291894E-14
  0.340000004       1.63296297E-14
  0.340999991       1.54683480E-14
  0.342000008       1.42434773E-14
  0.342999995       1.26578342E-14
  0.344000012       1.07190571E-14
  0.344999999       8.43985323E-15
  0.345999986       5.83835797E-15
  0.347000003       2.93861013E-15
  0.347999990      -2.28874973E-16
  0.349000007      -3.62646357E-15
  0.349999994      -7.20873827E-15
  0.351000011      -1.09218715E-14
  0.351999998      -1.47031011E-14
  0.352999985      -1.84803920E-14
  0.354000002      -2.21723766E-14
  0.354999989      -2.56886475E-14
  0.356000006      -2.89304984E-14
  0.356999993      -3.17921789E-14
  0.358000010      -3.41627192E-14
  0.358999997      -3.59283831E-14
  0.360000014      -3.69757190E-14
  0.361000001      -3.71952327E-14
  0.361999989      -3.64855952E-14
  0.363000005      -3.47583087E-14
  0.363999993      -3.19427034E-14
  0.365000010      -2.79910914E-14
  0.365999997      -2.28838707E-14
  0.367000014      -1.66343735E-14
  0.368000001      -9.29319826E-15
  0.368999988      -9.51743584E-16
  0.370000005       8.25529152E-15
  0.370999992       1.81487075E-14
  0.372000009       2.85051523E-14
  0.372999996       3.90591863E-14
  0.374000013       4.95072360E-14
  0.375000000       5.95135174E-14
  0.375999987       6.87179466E-14
  0.377000004       7.67459352E-14
  0.377999991       8.32199977E-14
  0.379000008       8.77728337E-14
  0.379999995       9.00615980E-14
  0.381000012       8.97829107E-14
  0.381999999       8.66881301E-14
  0.382999986       8.05982817E-14
  0.384000003       7.14180370E-14
  0.384999990       5.91481074E-14
  0.386000007       4.38953683E-14
  0.386999995       2.58801227E-14
  0.388000011       5.43984295E-15
  0.388999999      -1.69710251E-14
  0.389999986      -4.07856461E-14
  0.391000003      -6.53340432E-14
  0.391999990      -8.98571107E-14
  0.393000007      -1.13525292E-13
  0.393999994      -1.35461710E-13
  0.395000011      -1.54769304E-13
  0.395999998      -1.70561265E-13
  0.397000015      -1.81993960E-13
  0.398000002      -1.88301333E-13
  0.398999989      -1.88829624E-13
  0.400000006      -1.83071033E-13
  0.400999993      -1.70695055E-13
  0.402000010      -1.51576126E-13
  0.402999997      -1.25816092E-13
  0.404000014      -9.37602115E-14
  0.405000001      -5.60056220E-14
  0.405999988      -1.34012691E-14
  0.407000005       3.29615146E-14
  0.407999992       8.17681019E-14
  0.409000009       1.31509509E-13
  0.409999996       1.80520881E-13
  0.411000013       2.27028926E-13
  0.412000000       2.69207101E-13
  0.412999988       3.05237389E-13
  0.414000005       3.33376637E-13
  0.414999992       3.52025456E-13
  0.416000009       3.59797370E-13
  0.416999996       3.55585570E-13
  0.418000013       3.38624663E-13
  0.419000000       3.08544775E-13
  0.419999987       2.65415294E-13
  0.421000004       2.09775990E-13
  0.421999991       1.42653264E-13
  0.423000008       6.55599300E-14
  0.423999995      -1.95226796E-14
  0.425000012      -1.10181084E-13
  0.425999999      -2.03624362E-13
  0.426999986      -2.96756651E-13
  0.428000003      -3.86265889E-13
  0.428999990      -4.68726945E-13
  0.430000007      -5.40716181E-13
  0.430999994      -5.98934097E-13
  0.432000011      -6.40332243E-13
  0.432999998      -6.62240120E-13
  0.433999985      -6.62487101E-13
  0.435000002      -6.39514863E-13
  0.435999990      -5.92475721E-13
  0.437000006      -5.21311997E-13
  0.437999994      -4.26812448E-13
  0.439000010      -3.10642110E-13
  0.439999998      -1.75342759E-13
  0.441000015      -2.43022020E-14
  0.442000002       1.38308934E-13
  0.442999989       3.07632473E-13
  0.444000006       4.78248517E-13
  0.444999993       6.44329533E-13
  0.446000010       7.99818924E-13
  0.446999997       9.38629057E-13
  0.448000014       1.05485271E-12
  0.449000001       1.14298187E-12
  0.449999988       1.19812580E-12
  0.451000005       1.21622059E-12
  0.451999992       1.19422278E-12
  0.453000009       1.13027849E-12
  0.453999996       1.02386112E-12
  0.455000013       8.75870828E-13
  0.456000000       6.88689340E-13
  0.456999987       4.66186389E-13
  0.458000004       2.13674564E-13
  0.458999991      -6.21891319E-14
  0.460000008      -3.53554127E-13
  0.460999995      -6.51577479E-13
  0.462000012      -9.46670693E-13
  0.463000000      -1.22878650E-12
  0.463999987      -1.48773723E-12
  0.465000004      -1.71353589E-12
  0.465999991      -1.89674817E-12
  0.467000008      -2.02884476E-12
  0.467999995      -2.10254101E-12
  0.469000012      -2.11211170E-12
  0.469999999      -2.05366822E-12
  0.470999986      -1.92538693E-12
  0.472000003      -1.72767855E-12
  0.472999990      -1.46328902E-12
  0.474000007      -1.13732569E-12
  0.474999994      -7.57203653E-13
  0.476000011      -3.32510685E-13
  0.476999998       1.25208492E-13
  0.477999985       6.02745284E-13
  0.479000002       1.08559082E-12
  0.479999989       1.55836054E-12
  0.481000006       2.00526856E-12
  0.481999993       2.41063723E-12
  0.483000010       2.75942550E-12
  0.483999997       3.03775993E-12
  0.485000014       3.23344953E-12
  0.486000001       3.33646500E-12
  0.486999989       3.33936633E-12
  0.488000005       3.23766122E-12
  0.488999993       3.03007814E-12
  0.490000010       2.71874233E-12
  0.490999997       2.30924503E-12
  0.492000014       1.81059811E-12
  0.493000001       1.23507237E-12
  0.493999988       5.97919717E-13
  0.495000005      -8.30156798E-14
  0.495999992      -7.87787099E-13
  0.497000009      -1.49492452E-12
  0.497999996      -2.18208589E-12
  0.499000013      -2.82676139E-12
  0.500000000      -3.40700818E-12
  0.500999987      -3.90219150E-12
  0.501999974      -4.29370818E-12
  0.503000021      -4.56566729E-12
  0.504000008      -4.70550248E-12
  0.504999995      -4.70449200E-12
  0.505999982      -4.55817025E-12
  0.507000029      -4.26660833E-12
  0.508000016      -3.83455203E-12
  0.509000003      -3.27141070E-12
  0.509999990      -2.59108793E-12
  0.510999978      -1.81165857E-12
  0.512000024      -9.54898270E-13
  0.513000011      -4.56760823E-14
  0.513999999       8.88772942E-13
  0.514999986       1.81967354E-12
  0.515999973       2.71760891E-12
  0.517000020       3.55346460E-12
  0.518000007       4.29938680E-12
  0.518999994       4.92972330E-12
  0.519999981       5.42191422E-12
  0.521000028       5.75730132E-12
  0.522000015       5.92182770E-12
  0.523000002       5.90660160E-12
  0.523999989       5.70830145E-12
  0.524999976       5.32940489E-12
  0.526000023       4.77823163E-12
  0.527000010       4.06879261E-12
  0.527999997       3.22044908E-12
  0.528999984       2.25738785E-12
  0.529999971       1.20792514E-12
  0.531000018       1.03662467E-13
  0.532000005      -1.02148184E-12
  0.532999992      -2.13233554E-12
  0.533999979      -3.19359513E-12
  0.535000026      -4.17097173E-12
  0.536000013      -5.03232178E-12
  0.537000000      -5.74872441E-12
  0.537999988      -6.29547152E-12
  0.538999975      -6.65293038E-12
  0.540000021      -6.80725268E-12
  0.541000009      -6.75090235E-12
  0.541999996      -6.48298429E-12
  0.542999983      -6.00935621E-12
  0.544000030      -5.34252070E-12
  0.545000017      -4.50129821E-12
  0.546000004      -3.51028798E-12
  0.546999991      -2.39913471E-12
  0.547999978      -1.20162138E-12
  0.549000025       4.53824261E-14
  0.550000012       1.30308015E-12
  0.550999999       2.53198417E-12
  0.551999986       3.69318204E-12
  0.552999973       4.74959048E-12
  0.554000020       5.66716292E-12
  0.555000007       6.41600098E-12
  0.555999994       6.97133800E-12
  0.556999981       7.31436092E-12
  0.558000028       7.43284080E-12
  0.559000015       7.32155048E-12
  0.560000002       6.98246062E-12
  0.560999990       6.42469758E-12
  0.561999977       5.66427374E-12
  0.563000023       4.72359304E-12
  0.564000010       3.63074935E-12
  0.564999998       2.41864666E-12
  0.565999985       1.12395954E-12
  0.566999972      -2.14021509E-13
  0.568000019      -1.55462546E-12
  0.569000006      -2.85707655E-12
  0.569999993      -4.08176748E-12
  0.570999980      -5.19148830E-12
  0.572000027      -6.15257238E-12
  0.573000014      -6.93592102E-12
  0.574000001      -7.51787608E-12
  0.574999988      -7.88091033E-12
  0.575999975      -8.01412322E-12
  0.577000022      -7.91351880E-12
  0.578000009      -7.58206605E-12
  0.578999996      -7.02954101E-12
  0.579999983      -6.27215771E-12
  0.580999970      -5.33200697E-12
  0.582000017      -4.23632223E-12
  0.583000004      -3.01659956E-12
  0.583999991      -1.70760476E-12
  0.584999979      -3.46299486E-13
  0.586000025       1.02927584E-12
  0.587000012       2.38112524E-12
  0.588000000       3.67239312E-12
  0.588999987       4.86839475E-12
  0.589999974       5.93755427E-12
  0.591000021       6.85222452E-12
  0.592000008       7.58936403E-12
  0.592999995       8.13105399E-12
  0.593999982       8.46485295E-12
  0.595000029       8.58397728E-12
  0.596000016       8.48731068E-12
  0.597000003       8.17925588E-12
  0.597999990       7.66943540E-12
  0.598999977       6.97226218E-12
  0.600000024       6.10639664E-12
  0.601000011       5.09411784E-12
  0.601999998       3.96063347E-12
  0.602999985       2.73334870E-12
  0.603999972       1.44112326E-12
  0.605000019       1.13540416E-13
  0.606000006      -1.21979336E-12
  0.606999993      -2.52990185E-12
  0.607999980      -3.78902508E-12
  0.609000027      -4.97113505E-12
  0.610000014      -6.05236868E-12
  0.611000001      -7.01137455E-12
  0.611999989      -7.82958420E-12
  0.612999976      -8.49140029E-12
  0.614000022      -8.98431590E-12
  0.615000010      -9.29897305E-12
  0.615999997      -9.42917012E-12
  0.616999984      -9.37183144E-12
  0.617999971      -9.12694399E-12
  0.619000018      -8.69747937E-12
  0.620000005      -8.08930440E-12
  0.620999992      -7.31108837E-12
  0.621999979      -6.37420585E-12
  0.623000026      -5.29264696E-12
  0.624000013      -4.08291803E-12
  0.625000000      -2.76393795E-12
  0.625999987      -1.35692868E-12
  0.626999974       1.14728810E-13
  0.628000021       1.62566564E-12
  0.629000008       3.14874147E-12
  0.629999995       4.65531520E-12
  0.630999982       6.11557419E-12
  0.632000029       7.49894157E-12
  0.633000016       8.77455660E-12
  0.634000003       9.91183004E-12
  0.634999990       1.08810747E-11
  0.635999978       1.16541967E-11
  0.637000024       1.22054450E-11
  0.638000011       1.25121961E-11
  0.638999999       1.25557498E-11
  0.639999986       1.23221182E-11
  0.640999973       1.18027732E-11
  0.642000020       1.09953244E-11
  0.643000007       9.90409924E-12
  0.643999994       8.54058491E-12
  0.644999981       6.92371074E-12
  0.646000028       5.07993864E-12
  0.647000015       3.04313996E-12
  0.648000002       8.54247445E-13
  0.648999989      -1.43933639E-12
  0.649999976      -3.78457248E-12
  0.651000023      -6.12385967E-12
  0.652000010      -8.39632964E-12
  0.652999997      -1.05393359E-11
  0.653999984      -1.24901166E-11
  0.654999971      -1.41875782E-11
  0.656000018      -1.55741600E-11
  0.657000005      -1.65977215E-11
  0.657999992      -1.72133904E-11
  0.658999979      -1.73853206E-11
  0.660000026      -1.70882856E-11
  0.661000013      -1.63090548E-11
  0.662000000      -1.50474876E-11
  0.662999988      -1.33172969E-11
  0.663999975      -1.11464423E-11
  0.665000021      -8.57710257E-12
  0.666000009      -5.66522523E-12
  0.666999996      -2.47962306E-12
  0.667999983       8.99366193E-13
  0.669000030       4.38165173E-12
  0.670000017       7.86955483E-12
  0.671000004       1.12603173E-11
  0.671999991       1.44489039E-11
  0.672999978       1.73310220E-11
  0.674000025       1.98062799E-11
  0.675000012       2.17813857E-11
  0.675999999       2.31733001E-11
  0.676999986       2.39122472E-11
  0.677999973       2.39444679E-11
  0.679000020       2.32346347E-11
  0.680000007       2.17678323E-11
  0.680999994       1.95510257E-11
  0.681999981       1.66139411E-11
  0.683000028       1.30093063E-11
  0.684000015       8.81242301E-12
  0.685000002       4.12003764E-12
  0.685999990      -9.51480648E-13
  0.686999977      -6.26863188E-12
  0.688000023      -1.16839064E-11
  0.689000010      -1.70394705E-11
  0.689999998      -2.21713307E-11
  0.690999985      -2.69138843E-11
  0.691999972      -3.11047264E-11
  0.693000019      -3.45895847E-11
  0.694000006      -3.72272629E-11
  0.694999993      -3.88944120E-11
  0.695999980      -3.94900085E-11
  0.697000027      -3.89393899E-11
  0.698000014      -3.71977102E-11
  0.699000001      -3.42526597E-11
  0.699999988      -3.01263840E-11
  0.700999975      -2.48764915E-11
  0.702000022      -1.85960431E-11
  0.703000009      -1.14125393E-11
  0.703999996      -3.48583835E-12
  0.704999983       4.99494803E-12
  0.705999970       1.38155537E-11
  0.707000017       2.27415864E-11
  0.708000004       3.15243560E-11
  0.708999991       3.99073830E-11
  0.709999979       4.76334319E-11
  0.711000025       5.44518909E-11
  0.712000012       6.01262720E-11
  0.713000000       6.44416742E-11
  0.713999987       6.72119096E-11
  0.714999974       6.82861614E-11
  0.716000021       6.75548922E-11
  0.717000008       6.49548193E-11
  0.717999995       6.04727726E-11
  0.718999982       5.41482657E-11
  0.720000029       4.60746545E-11
  0.721000016       3.63987937E-11
  0.722000003       2.53191114E-11
  0.722999990       1.30820979E-11
  0.723999977      -2.27443932E-14
  0.725000024      -1.36694250E-11
  0.726000011      -2.75033329E-11
  0.726999998      -4.11502638E-11
  0.727999985      -5.42264185E-11
  0.728999972      -6.63490859E-11
  0.730000019      -7.71477396E-11
  0.731000006      -8.62752578E-11
  0.731999993      -9.34188976E-11
  0.732999980      -9.83107137E-11
  0.734000027      -1.00737071E-10
  0.735000014      -1.00546946E-10
  0.736000001      -9.76587283E-11
  0.736999989      -9.20652166E-11
  0.737999976      -8.38365974E-11
  0.739000022      -7.31212452E-11
  0.740000010      -6.01442438E-11
  0.740999997      -4.52035423E-11
  0.741999984      -2.86637797E-11
  0.742999971      -1.09478971E-11
  0.744000018       7.47333098E-12
  0.745000005       2.60935960E-11
  0.745999992       4.43848777E-11
  0.746999979       6.18124510E-11
  0.748000026       7.78506148E-11
  0.749000013       9.19987558E-11
  0.750000000       1.03797200E-10
  0.750999987       1.12842374E-10
  0.751999974       1.18800844E-10
  0.753000021       1.21421664E-10
  0.754000008       1.20546628E-10
  0.754999995       1.16118060E-10
  0.755999982       1.08183740E-10
  0.757000029       9.68987668E-11
  0.758000016       8.25241958E-11
  0.759000003       6.54223134E-11
  0.759999990       4.60486267E-11
  0.760999978       2.49407196E-11
  0.762000024       2.70415374E-12
  0.763000011      -2.00041841E-11
  0.763999999      -4.24948583E-11
  0.764999986      -6.40662939E-11
  0.765999973      -8.40262304E-11
  0.767000020      -1.01713533E-10
  0.768000007      -1.16519697E-10
  0.768999994      -1.27909378E-10
  0.769999981      -1.35439271E-10
  0.771000028      -1.38774575E-10
  0.772000015      -1.37702641E-10
  0.773000002      -1.32143074E-10
  0.773999989      -1.22154009E-10
  0.774999976      -1.07934141E-10
  0.776000023      -8.98203942E-11
  0.777000010      -6.82810961E-11
  0.777999997      -4.39048381E-11
  0.778999984      -1.73851558E-11
  0.779999971       1.04985413E-11
  0.781000018       3.89032764E-11
  0.782000005       6.69474823E-11
  0.782999992       9.37378300E-11
  0.783999979       1.18397167E-10
  0.785000026       1.40092715E-10
  0.786000013       1.58063465E-10
  0.787000000       1.71646114E-10
  0.787999988       1.80298415E-10
  0.788999975       1.83619300E-10
  0.790000021       1.81364979E-10
  0.791000009       1.73460343E-10
  0.791999996       1.60005287E-10
  0.792999983       1.41275575E-10
  0.794000030       1.17718058E-10
  0.795000017       8.99403052E-11
  0.796000004       5.86949239E-11
  0.796999991       2.48587921E-11
  0.797999978      -1.05920932E-11
  0.799000025      -4.66114577E-11
  0.800000012      -8.21144402E-11
  0.800999999      -1.16011187E-10
  0.801999986      -1.47241233E-10
  0.802999973      -1.74807599E-10
  0.804000020      -1.97809547E-10
  0.805000007      -2.15472779E-10
  0.805999994      -2.27176097E-10
  0.806999981      -2.32473679E-10
  0.808000028      -2.31112060E-10
  0.809000015      -2.23041141E-10
  0.810000002      -2.08418977E-10
  0.810999990      -1.87609761E-10
  0.811999977      -1.61175254E-10
  0.813000023      -1.29859692E-10
  0.814000010      -9.45685752E-11
  0.814999998      -5.63419519E-11
  0.815999985      -1.63230245E-11
  0.816999972       2.42770248E-11
  0.818000019       6.42168124E-11
  0.819000006       1.02264010E-10
  0.819999993       1.37234751E-10
  0.820999980       1.68031922E-10
  0.822000027       1.93681127E-10
  0.823000014       2.13362938E-10
  0.824000001       2.26440561E-10
  0.824999988       2.32481825E-10
  0.825999975       2.31274694E-10
  0.827000022       2.22835819E-10
  0.828000009       2.07411727E-10
  0.828999996       1.85472512E-10
  0.829999983       1.57698188E-10
  0.830999970       1.24958155E-10
  0.832000017       8.82842688E-11
  0.833000004       4.88384576E-11
  0.833999991       7.87589612E-12
  0.834999979      -3.32952277E-11
  0.836000025      -7.33558145E-11
  0.837000012      -1.11018639E-10
  0.838000000      -1.45070359E-10
  0.838999987      -1.74411263E-10
  0.839999974      -1.98091654E-10
  0.841000021      -2.15343479E-10
  0.842000008      -2.25606145E-10
  0.842999995      -2.28545738E-10
  0.843999982      -2.24066890E-10
  0.845000029      -2.12316942E-10
  0.846000016      -1.93682209E-10
  0.847000003      -1.68776423E-10
  0.847999990      -1.38421774E-10
  0.848999977      -1.03623034E-10
  0.850000024      -6.55356741E-11
  0.851000011      -2.54290287E-11
  0.851999998       1.53543619E-11
  0.852999985       5.54418941E-11
  0.853999972       9.34751165E-11
  0.855000019       1.28153599E-10
  0.856000006       1.58276947E-10