   0.00000000       0.00000000    
   1.00000005E-03   0.00000000    
   2.00000009E-03   0.00000000    
   3.00000003E-03   0.00000000    
   4.00000019E-03   0.00000000    
   4.99999989E-03   0.00000000    
   6.00000005E-03   0.00000000    
   7.00000022E-03   0.00000000    
   8.00000038E-03   0.00000000    
   8.99999961E-03   0.00000000    
   9.99999978E-03   0.00000000    
   1.09999999E-02   0.00000000    
   1.20000001E-02  -3.25010148E-37
   1.30000003E-02  -2.77442137E-36
   1.40000004E-02  -1.67289879E-35
   1.49999997E-02  -7.46184873E-35
   1.60000008E-02  -2.78823724E-34
   1.70000009E-02  -9.21218760E-34
   1.79999992E-02  -2.78233562E-33
   1.89999994E-02  -7.82205092E-33
   1.99999996E-02  -2.06317391E-32
   2.09999997E-02  -5.13570896E-32
   2.19999999E-02  -1.21296676E-31
   2.30000000E-02  -2.73107163E-31
   2.40000002E-02  -5.88593155E-31
   2.50000004E-02  -1.21842134E-30
   2.60000005E-02  -2.42973780E-30
   2.70000007E-02  -4.67940904E-30
   2.80000009E-02  -8.72207404E-30
   2.89999992E-02  -1.57627210E-29
   2.99999993E-02  -2.76620475E-29
   3.09999995E-02  -4.71978624E-29
   3.20000015E-02  -7.83752015E-29
   3.29999998E-02  -1.26759027E-28
   3.40000018E-02  -1.99773234E-28
   3.50000001E-02  -3.06864966E-28
   3.59999985E-02  -4.59371029E-28
   3.70000005E-02  -6.69840938E-28
   3.79999988E-02  -9.50469154E-28
   3.90000008E-02  -1.31016999E-27
   3.99999991E-02  -1.74969984E-27
   4.10000011E-02  -2.25410706E-27
   4.19999994E-02  -2.78169226E-27
   4.30000015E-02  -3.24862050E-27
   4.39999998E-02  -3.50839031E-27
   4.50000018E-02  -3.32557257E-27
   4.60000001E-02  -2.34366299E-27
   4.69999984E-02  -4.76036919E-29
   4.80000004E-02   4.27741106E-27
   4.89999987E-02   1.15877596E-26
   5.00000007E-02   2.31188230E-26
   5.09999990E-02   4.04106355E-26
   5.20000011E-02   6.53115693E-26
   5.29999994E-02   9.99467970E-26
   5.40000014E-02   1.46635067E-25
   5.49999997E-02   2.07734539E-25
   5.60000017E-02   2.85396021E-25
   5.70000000E-02   3.81201305E-25
   5.79999983E-02   4.95665022E-25
   5.90000004E-02   6.27582435E-25
   5.99999987E-02   7.73213455E-25
   6.10000007E-02   9.25304753E-25
   6.19999990E-02   1.07196977E-24
   6.30000010E-02   1.19546999E-24
   6.40000030E-02   1.27097029E-24
   6.49999976E-02   1.26537736E-24
   6.59999996E-02   1.13641152E-24
   6.70000017E-02   8.32104584E-25
   6.80000037E-02   2.90962446E-25
   6.89999983E-02  -5.56927615E-25
   7.00000003E-02  -1.78753396E-24
   7.10000023E-02  -3.47893418E-24
   7.19999969E-02  -5.70546135E-24
   7.29999989E-02  -8.52965793E-24
   7.40000010E-02  -1.19918296E-23
   7.50000030E-02  -1.60971075E-23
   7.59999976E-02  -2.08001195E-23
   7.69999996E-02  -2.59875852E-23
   7.80000016E-02  -3.14594889E-23
   7.90000036E-02  -3.69097920E-23
   7.99999982E-02  -4.19080968E-23
   8.10000002E-02  -4.58840725E-23
   8.20000023E-02  -4.81169464E-23
   8.29999968E-02  -4.77327459E-23
   8.39999989E-02  -4.37123479E-23
   8.50000009E-02  -3.49136521E-23
   8.60000029E-02  -2.01112152E-23
   8.69999975E-02   1.94345981E-24
   8.79999995E-02   3.24382602E-23
   8.90000015E-02   7.23915628E-23
   9.00000036E-02   1.22517482E-22
   9.09999982E-02   1.83066419E-22
   9.20000002E-02   2.53644126E-22
   9.30000022E-02   3.33015246E-22
   9.39999968E-02   4.18900388E-22
   9.49999988E-02   5.07778935E-22
   9.60000008E-02   5.94713578E-22
   9.70000029E-02   6.73215613E-22
   9.79999974E-02   7.35173834E-22
   9.89999995E-02   7.70871696E-22
  0.100000001       7.69119137E-22
  0.101000004       7.17526119E-22
  0.101999998       6.02942571E-22
  0.103000000       4.12085791E-22
  0.104000002       1.32370873E-22
  0.104999997      -2.47051192E-22
  0.105999999      -7.34053828E-22
  0.107000001      -1.33211500E-21
  0.108000003      -2.03875787E-21
  0.108999997      -2.84391137E-21
  0.109999999      -3.72827427E-21
  0.111000001      -4.66178556E-21
  0.112000003      -5.60233273E-21
  0.112999998      -6.49484284E-21
  0.114000000      -7.27091920E-21
  0.115000002      -7.84920246E-21
  0.115999997      -8.13662672E-21
  0.116999999      -8.03073952E-21
  0.118000001      -7.42323514E-21
  0.119000003      -6.20480496E-21
  0.119999997      -4.27136600E-21
  0.120999999      -1.53166001E-21
  0.122000001       2.08387880E-21
  0.123000003       6.61317571E-21
  0.123999998       1.20518018E-20
  0.125000000       1.83419288E-20
  0.126000002       2.53615062E-20
  0.127000004       3.29143534E-20
  0.128000006       4.07219594E-20
  0.128999993       4.84179024E-20
  0.129999995       5.55458438E-20
  0.130999997       6.15620964E-20
  0.131999999       6.58437254E-20
  0.133000001       6.77030594E-20
  0.134000003       6.64093748E-20
  0.135000005       6.12182348E-20
  0.136000007       5.14086611E-20
  0.136999995       3.63279437E-20
  0.137999997       1.54434168E-20
  0.138999999      -1.15999972E-20
  0.140000001      -4.49182854E-20
  0.141000003      -8.43253120E-20
  0.142000005      -1.29271243E-19
  0.143000007      -1.78786107E-19
  0.143999994      -2.31432624E-19
  0.144999996      -2.85272854E-19
  0.145999998      -3.37853443E-19
  0.147000000      -3.86214376E-19
  0.148000002      -4.26925879E-19
  0.149000004      -4.56157641E-19
  0.150000006      -4.69783632E-19
  0.150999993      -4.63524925E-19
  0.151999995      -4.33130923E-19
  0.152999997      -3.74598201E-19
  0.153999999      -2.84423391E-19
  0.155000001      -1.59884564E-19
  0.156000003       6.57227308E-22
  0.157000005       1.97447185E-19
  0.158000007       4.29030537E-19
  0.158999994       6.91966930E-19
  0.159999996       9.80583532E-19
  0.160999998       1.28678667E-18
  0.162000000       1.59995342E-18
  0.163000003       1.90692325E-18
  0.164000005       2.19211010E-18
  0.165000007       2.43775317E-18
  0.165999994       2.62431983E-18
  0.166999996       2.73107142E-18
  0.167999998       2.73679530E-18
  0.169000000       2.62069988E-18
  0.170000002       2.36345994E-18
  0.171000004       1.94839105E-18
  0.172000006       1.36272226E-18
  0.172999993       5.98924310E-19
  0.173999995      -3.43958191E-19
  0.174999997      -1.45903121E-18
  0.175999999      -2.73040409E-18
  0.177000001      -4.13224320E-18
  0.178000003      -5.62810835E-18
  0.179000005      -7.17065006E-18
  0.180000007      -8.70174648E-18
  0.180999994      -1.01531482E-17
  0.181999996      -1.14476900E-17
  0.182999998      -1.25011119E-17
  0.184000000      -1.32245079E-17
  0.185000002      -1.35274024E-17
  0.186000004      -1.33214195E-17
  0.187000006      -1.25244790E-17
  0.187999994      -1.10654217E-17
  0.188999996      -8.88892670E-18
  0.189999998      -5.96054976E-18
  0.191000000      -2.27168922E-18
  0.192000002       2.15576523E-18
  0.193000004       7.26533908E-18
  0.194000006       1.29627135E-17
  0.194999993       1.91135615E-17
  0.195999995       2.55427616E-17
  0.196999997       3.20352129E-17
  0.197999999       3.83384814E-17
  0.199000001       4.41674378E-17
  0.200000003       4.92109830E-17
  0.201000005       5.31408983E-17
  0.202000007       5.56227478E-17
  0.202999994       5.63286836E-17
  0.203999996       5.49519110E-17
  0.204999998       5.12223918E-17
  0.206000000       4.49233486E-17
  0.207000002       3.59079865E-17
  0.208000004       2.41157361E-17
  0.209000006       9.58731116E-18
  0.209999993      -7.52223656E-18
  0.210999995      -2.69332952E-17
  0.211999997      -4.82351184E-17
  0.213000000      -7.08836346E-17
  0.214000002      -9.42044037E-17
  0.215000004      -1.17401202E-16
  0.216000006      -1.39570701E-16
  0.216999993      -1.59723507E-16
  0.217999995      -1.76811391E-16
  0.218999997      -1.89760553E-16
  0.219999999      -1.97510282E-16
  0.221000001      -1.99056197E-16
  0.222000003      -1.93496842E-16
  0.223000005      -1.80082235E-16
  0.224000007      -1.58262600E-16
  0.224999994      -1.27735427E-16
  0.225999996      -8.84887511E-17
  0.226999998      -4.08383568E-17
  0.228000000       1.45432364E-17
  0.229000002       7.66081479E-17
  0.230000004       1.43926925E-16
  0.231000006       2.14696501E-16
  0.231999993       2.86763481E-16
  0.232999995       3.57663950E-16
  0.233999997       4.24679741E-16
  0.234999999       4.84911433E-16
  0.236000001       5.35366592E-16
  0.237000003       5.73061676E-16
  0.238000005       5.95135301E-16
  0.238999993       5.98969502E-16
  0.239999995       5.82315193E-16
  0.240999997       5.43417481E-16
  0.241999999       4.81135890E-16
  0.243000001       3.95054314E-16
  0.244000003       2.85574961E-16
  0.245000005       1.53991649E-16
  0.246000007       2.53670486E-18
  0.246999994      -1.65602379E-16
  0.247999996      -3.46301003E-16
  0.248999998      -5.34552487E-16
  0.250000000      -7.24561936E-16
  0.250999987      -9.09879298E-16
  0.252000004      -1.08357007E-15
  0.252999991      -1.23842125E-15
  0.254000008      -1.36717767E-15
  0.254999995      -1.46280271E-15
  0.256000012      -1.51875549E-15
  0.256999999      -1.52927606E-15
  0.257999986      -1.48966806E-15
  0.259000003      -1.39656749E-15
  0.259999990      -1.24818701E-15
  0.261000007      -1.04452302E-15
  0.261999995      -7.87515224E-16
  0.263000011      -4.81148066E-16
  0.263999999      -1.31485255E-16
  0.264999986       2.53370107E-16
  0.266000003       6.63394510E-16
  0.266999990       1.08684354E-15
  0.268000007       1.51053217E-15
  0.268999994       1.92019150E-15
  0.270000011       2.30089427E-15
  0.270999998       2.63753841E-15
  0.272000015       2.91537538E-15
  0.273000002       3.12056657E-15
  0.273999989       3.24074827E-15
  0.275000006       3.26558539E-15
  0.275999993       3.18729032E-15
  0.277000010       3.00108601E-15
  0.277999997       2.70559095E-15
  0.279000014       2.30310503E-15
  0.280000001       1.79977942E-15
  0.280999988       1.20565505E-15
  0.282000005       5.34558893E-16
  0.282999992      -1.96148558E-16
  0.284000009      -9.65972467E-16
  0.284999996      -1.75182708E-15
  0.286000013      -2.52870950E-15
  0.287000000      -3.27048802E-15
  0.287999988      -3.95078062E-15
  0.289000005      -4.54389512E-15
  0.289999992      -5.02580011E-15
  0.291000009      -5.37508855E-15
  0.291999996      -5.57389480E-15
  0.293000013      -5.60873073E-15
  0.294000000      -5.47119799E-15
  0.294999987      -5.15854330E-15
  0.296000004      -4.67402691E-15
  0.296999991      -4.02707754E-15
  0.298000008      -3.23321327E-15
  0.298999995      -2.31372259E-15
  0.300000012      -1.29510438E-15
  0.300999999      -2.08274814E-16
  0.301999986       9.12437020E-16
  0.303000003       2.03047646E-15
  0.303999990       3.10839132E-15
  0.305000007       4.10925414E-15
  0.305999994       4.99812628E-15
  0.307000011       5.74350002E-15
  0.307999998       6.31865826E-15
  0.308999985       6.70288935E-15
  0.310000002       6.88249930E-15
  0.310999990       6.85156311E-15
  0.312000006       6.61237202E-15
  0.312999994       6.17554188E-15
  0.314000010       5.55975655E-15
  0.314999998       4.79114276E-15
  0.316000015       3.90228502E-15
  0.317000002       2.93090256E-15
  0.317999989       1.91823486E-15
  0.319000006       9.07191980E-16
  0.319999993      -5.96546247E-17
  0.321000010      -9.42159512E-16
  0.321999997      -1.70467181E-15
  0.323000014      -2.31798465E-15
  0.324000001      -2.76106737E-15
  0.324999988      -3.02248079E-15
  0.326000005      -3.10138721E-15
  0.326999992      -3.00807679E-15
  0.328000009      -2.76395363E-15
  0.328999996      -2.40094178E-15
  0.330000013      -1.96030021E-15
  0.331000000      -1.49085591E-15
  0.331999987      -1.04671048E-15
  0.333000004      -6.84481448E-16
  0.333999991      -4.60180771E-16
  0.335000008      -4.25852432E-16
  0.335999995      -6.26124425E-16
  0.337000012      -1.09484197E-15
  0.338000000      -1.85194394E-15
  0.338999987      -2.90076555E-15
  0.340000004      -4.22593801E-15
  0.340999991      -5.79205068E-15
  0.342000008      -7.54320363E-15
  0.342999995      -9.40355903E-15
  0.344000012      -1.12789671E-14
  0.344999999      -1.30596844E-14
  0.345999986      -1.46241678E-14
  0.347000003      -1.58438478E-14
  0.347999990      -1.65887862E-14
  0.349000007      -1.67340100E-14
  0.349999994      -1.61662811E-14
  0.351000011      -1.47910672E-14
  0.351999998      -1.25393885E-14
  0.352999985      -9.37418732E-15
  0.354000002      -5.29592485E-15
  0.354999989      -3.47041257E-16
  0.356000006       5.38502043E-15
  0.356999993       1.17665201E-14
  0.358000010       1.86180671E-14
  0.358999997       2.57173840E-14
  0.360000014       3.28042681E-14
  0.361000001       3.95877450E-14
  0.361999989       4.57552968E-14
  0.363000005       5.09839871E-14
  0.363999993       5.49531666E-14
  0.365000010       5.73583607E-14
  0.365999997       5.79258457E-14
  0.367000014       5.64273326E-14
  0.368000001       5.26941975E-14
  0.368999988       4.66305597E-14
  0.370000005       3.82245268E-14
  0.370999992       2.75570243E-14
  0.372000009       1.48075691E-14
  0.372999996       2.56442613E-16
  0.374000013      -1.57170690E-14
  0.375000000      -3.26407263E-14
  0.375999987      -4.99597922E-14
  0.377000004      -6.70518057E-14
  0.377999991      -8.32454968E-14
  0.379000008      -9.78434185E-14
  0.379999995      -1.10147616E-13
  0.381000012      -1.19487590E-13
  0.381999999      -1.25249637E-13
  0.382999986      -1.26906420E-13
  0.384000003      -1.24045549E-13
  0.384999990      -1.16395961E-13
  0.386000007      -1.03850922E-13
  0.386999995      -8.64862381E-14
  0.388000011      -6.45727165E-14
  0.388999999      -3.85817646E-14
  0.389999986      -9.18338383E-15
  0.391000003       2.27639766E-14
  0.391999990       5.62319559E-14
  0.393000007       9.00491772E-14
  0.393999994       1.22936072E-13
  0.395000011       1.53546880E-13
  0.395999998       1.80517683E-13
  0.397000015       2.02519032E-13
  0.398000002       2.18311494E-13
  0.398999989       2.26802003E-13
  0.400000006       2.27098871E-13
  0.400999993       2.18563205E-13
  0.402000010       2.00854348E-13
  0.402999997       1.73966988E-13
  0.404000014       1.38257922E-13
  0.405000001       9.44606196E-14
  0.405999988       4.36858937E-14
  0.407000005      -1.25922662E-14
  0.407999992      -7.25663426E-14
  0.409000009      -1.34140420E-13
  0.409999996      -1.94990169E-13
  0.411000013      -2.52636670E-13
  0.412000000      -3.04531790E-13
  0.412999988      -3.48153066E-13
  0.414000005      -3.81104843E-13
  0.414999992      -4.01222241E-13
  0.416000009      -4.06674098E-13
  0.416999996      -3.96060707E-13
  0.418000013      -3.68502348E-13
  0.419000000      -3.23714200E-13
  0.419999987      -2.62063808E-13
  0.421000004      -1.84607727E-13
  0.421999991      -9.31041201E-14
  0.423000008       1.00007079E-14
  0.423999995       1.21613440E-13
  0.425000012       2.38062906E-13
  0.425999999       3.55196531E-13
  0.426999986       4.68502678E-13
  0.428000003       5.73255636E-13
  0.428999990       6.64679900E-13
  0.430000007       7.38128363E-13
  0.430999994       7.89268661E-13
  0.432000011       8.14271773E-13
  0.432999998       8.09995137E-13
  0.433999985       7.74153311E-13
  0.435000002       7.05468832E-13
  0.435999990       6.03796418E-13
  0.437000006       4.70213386E-13
  0.437999994       3.07071236E-13
  0.439000010       1.18003101E-13
  0.439999998      -9.21155174E-14
  0.441000015      -3.17254930E-13
  0.442000002      -5.50368670E-13
  0.442999989      -7.83577630E-13
  0.444000006      -1.00839801E-12
  0.444999993      -1.21600690E-12
  0.446000010      -1.39753888E-12
  0.446999997      -1.54440458E-12
  0.448000014      -1.64862080E-12
  0.449000001      -1.70314099E-12
  0.449999988      -1.70217421E-12
  0.451000005      -1.64147992E-12
  0.451999992      -1.51862670E-12
  0.453000009      -1.33320275E-12
  0.453999996      -1.08696830E-12
  0.455000013      -7.83940295E-13
  0.456000000      -4.30401645E-13
  0.456999987      -3.48308893E-14
  0.458000004       3.92250251E-13
  0.458999991       8.38511389E-13
  0.460000008       1.29012653E-12
  0.460999995       1.73215847E-12
  0.462000012       2.14900645E-12
  0.463000000       2.52490411E-12
  0.463999987       2.84445319E-12
  0.465000004       3.09317546E-12
  0.465999991       3.25806656E-12
  0.467000008       3.32813031E-12
  0.467999995       3.29487457E-12
  0.469000012       3.15274933E-12
  0.469999999       2.89950789E-12
  0.470999986       2.53647537E-12
  0.472000003       2.06870914E-12
  0.472999990       1.50504045E-12
  0.474000007       8.57989515E-13
  0.474999994       1.43550238E-13
  0.476000011      -6.19155280E-13
  0.476999998      -1.40834610E-12
  0.477999985      -2.20016626E-12
  0.479000002      -2.96936954E-12
  0.479999989      -3.69008513E-12
  0.481000006      -4.33664389E-12
  0.481999993      -4.88443834E-12
  0.483000010      -5.31078827E-12
  0.483999997      -5.59578599E-12
  0.485000014      -5.72308693E-12
  0.486000001      -5.68061874E-12
  0.486999989      -5.46118272E-12
  0.488000005      -5.06291883E-12
  0.488999993      -4.48961398E-12
  0.490000010      -3.75083818E-12
  0.490999997      -2.86189301E-12
  0.492000014      -1.84356783E-12
  0.493000001      -7.21706061E-13
  0.493999988       4.73415794E-13
  0.495000005       1.70788123E-12
  0.495999992       2.94507951E-12
  0.497000009       4.14677797E-12
  0.497999996       5.27429185E-12
  0.499000013       6.28971224E-12
  0.500000000       7.15716028E-12
  0.500999987       7.84401970E-12
  0.501999974       8.32211123E-12
  0.503000021       8.56876202E-12
  0.504000008       8.56773680E-12
  0.504999995       8.30999245E-12
  0.505999982       7.79422187E-12
  0.507000029       7.02716661E-12
  0.508000016       6.02367808E-12
  0.509000003       4.80651500E-12
  0.509999990       3.40587888E-12
  0.510999978       1.85869137E-12
  0.512000024       2.07630300E-13
  0.513000011      -1.50005073E-12
  0.513999999      -3.21388771E-12
  0.514999986      -4.88171656E-12
  0.515999973      -6.45128482E-12
  0.517000020      -7.87190972E-12
  0.518000007      -9.09613704E-12
  0.518999994      -1.00813385E-11
  0.519999981      -1.07911987E-11
  0.521000028      -1.11970346E-11
  0.522000015      -1.12789066E-11
  0.523000002      -1.10264766E-11
  0.523999989      -1.04395746E-11
  0.524999976      -9.52845008E-12
  0.526000023      -8.31369695E-12
  0.527000010      -6.82583981E-12
  0.527999997      -5.10459210E-12
  0.528999984      -3.19780140E-12
  0.529999971      -1.16010532E-12
  0.531000018       9.48658578E-13
  0.532000005       3.06524337E-12
  0.532999992       5.12493173E-12
  0.533999979       7.06356067E-12
  0.535000026       8.81957181E-12
  0.536000013       1.03360124E-11
  0.537000000       1.15624298E-11
  0.537999988       1.24565913E-11
  0.538999975       1.29859656E-11
  0.540000021       1.31289259E-11
  0.541000009       1.28756138E-11
  0.541999996       1.22284440E-11
  0.542999983       1.12022206E-11
  0.544000030       9.82385614E-12
  0.545000017       8.13169497E-12
  0.546000004       6.17445895E-12
  0.546999991       4.00984497E-12
  0.547999978       1.70281031E-12
  0.549000025      -6.76397415E-13
  0.550000012      -3.05440786E-12
  0.550999999      -5.35702559E-12
  0.551999986      -7.51158337E-12
  0.552999973      -9.44927643E-12
  0.554000020      -1.11074015E-11
  0.555000007      -1.24314222E-11
  0.555999994      -1.33768005E-11
  0.556999981      -1.39105246E-11
  0.558000028      -1.40122844E-11
  0.559000015      -1.36752484E-11
  0.560000002      -1.29064181E-11
  0.560999990      -1.17265407E-11
  0.561999977      -1.01695805E-11
  0.563000023      -8.28175722E-12
  0.564000010      -6.12018769E-12
  0.564999998      -3.75116604E-12
  0.565999985      -1.24812910E-12
  0.566999972       1.31061752E-12
  0.568000019       3.84434975E-12
  0.569000006       6.27247429E-12
  0.569999993       8.51708894E-12
  0.570999980       1.05054767E-11
  0.572000027       1.21724549E-11
  0.573000014       1.34625002E-11
  0.574000001       1.43315750E-11
  0.574999988       1.47486034E-11
  0.575999975       1.46965547E-11
  0.577000022       1.41730698E-11
  0.578000009       1.31906378E-11
  0.578999996       1.17763056E-11
  0.579999983       9.97092253E-12
  0.580999970       7.82794576E-12
  0.582000017       5.41184545E-12
  0.583000004       2.79615740E-12
  0.583999991       6.12388829E-14
  0.584999979      -2.70819435E-12
  0.586000025      -5.42567640E-12
  0.587000012      -8.00566904E-12
  0.588000000      -1.03662140E-11
  0.588999987      -1.24314881E-11
  0.589999974      -1.41341773E-11
  0.591000021      -1.54175873E-11
  0.592000008      -1.62374419E-11
  0.592999995      -1.65633063E-11
  0.593999982      -1.63795817E-11
  0.595000029      -1.56860514E-11
  0.596000016      -1.44979662E-11
  0.597000003      -1.28456594E-11
  0.597999990      -1.07737022E-11
  0.598999977      -8.33963020E-12
  0.600000024      -5.61228061E-12
  0.601000011      -2.66979277E-12
  0.601999998       4.02672687E-13
  0.602999985       3.51542233E-12
  0.603999972       6.57685538E-12
  0.605000019       9.49614172E-12
  0.606000006       1.21858799E-11
  0.606999993       1.45646481E-11
  0.607999980       1.65593858E-11
  0.609000027       1.81075328E-11
  0.610000014       1.91588603E-11
  0.611000001       1.96769424E-11
  0.611999989       1.96402408E-11
  0.612999976       1.90427639E-11
  0.614000022       1.78942815E-11
  0.615000010       1.62201017E-11
  0.615999997       1.40604126E-11
  0.616999984       1.14692145E-11
  0.617999971       8.51287270E-12
  0.619000018       5.26833698E-12
  0.620000005       1.82107129E-12
  0.620999992      -1.73723709E-12
  0.621999979      -5.31113131E-12
  0.623000026      -8.80393154E-12
  0.624000013      -1.21203108E-11
  0.625000000      -1.51688263E-11
  0.625999987      -1.78643437E-11
  0.626999974      -2.01302898E-11
  0.628000021      -2.19006757E-11
  0.629000008      -2.31218603E-11
  0.629999995      -2.37539780E-11
  0.630999982      -2.37720173E-11
  0.632000029      -2.31665364E-11
  0.633000016      -2.19439848E-11
  0.634000003      -2.01266295E-11
  0.634999990      -1.77520949E-11
  0.635999978      -1.48725320E-11
  0.637000024      -1.15534318E-11
  0.638000011      -7.87212569E-12
  0.638999999      -3.91598863E-12
  0.639999986       2.19587803E-13
  0.640999973       4.43342151E-12
  0.642000020       8.62091128E-12
  0.643000007       1.26764961E-11
  0.643999994       1.64961551E-11
  0.644999981       1.99798823E-11
  0.646000028       2.30341024E-11
  0.647000015       2.55739544E-11
  0.648000002       2.75254073E-11
  0.648999989       2.88271629E-11
  0.649999976       2.94322969E-11
  0.651000023       2.93096103E-11
  0.652000010       2.84446564E-11
  0.652999997       2.68404170E-11
  0.653999984       2.45176136E-11
  0.654999971       2.15146356E-11
  0.656000018       1.78870842E-11
  0.657000005       1.37069392E-11
  0.657999992       9.06133849E-12
  0.658999979       4.05099825E-12
  0.660000026      -1.21169481E-12
  0.661000013      -6.60491974E-12
  0.662000000      -1.19999262E-11
  0.662999988      -1.72637616E-11
  0.663999975      -2.22621956E-11
  0.665000021      -2.68627794E-11
  0.666000009      -3.09379779E-11
  0.666999996      -3.43683068E-11
  0.667999983      -3.70454153E-11
  0.669000030      -3.88750664E-11
  0.670000017      -3.97798981E-11
  0.671000004      -3.97019397E-11
  0.671999991      -3.86047999E-11
  0.672999978      -3.64754511E-11
  0.674000025      -3.33255645E-11
  0.675000012      -2.91923291E-11
  0.675999999      -2.41387275E-11
  0.676999986      -1.82531993E-11
  0.677999973      -1.16486950E-11
  0.679000020      -4.46109339E-12
  0.680000007       3.15301518E-12
  0.680999994       1.10191578E-11
  0.681999981       1.89484019E-11
  0.683000028       2.67413054E-11
  0.684000015       3.41923642E-11
  0.685000002       4.10948324E-11
  0.685999990       4.72458357E-11
  0.686999977       5.24516958E-11
  0.688000023       5.65333162E-11
  0.689000010       5.93314772E-11
  0.689999998       6.07119632E-11
  0.690999985       6.05703057E-11
  0.691999972       5.88360471E-11
  0.693000019       5.54763631E-11
  0.694000006       5.04989418E-11
  0.694999993       4.39539238E-11
  0.695999980       3.59348801E-11
  0.697000027       2.65786785E-11
  0.698000014       1.60642229E-11
  0.699000001       4.60998340E-12
  0.699999988      -7.52966092E-12
  0.700999975      -2.00692362E-11
  0.702000022      -3.26981116E-11
  0.703000009      -4.50874477E-11
  0.703999996      -5.68980141E-11
  0.704999983      -6.77887468E-11
  0.705999970      -7.74258296E-11
  0.707000017      -8.54920787E-11
  0.708000004      -9.16964005E-11
  0.708999991      -9.57830482E-11
  0.709999979      -9.75404410E-11
  0.711000025      -9.68092204E-11
  0.712000012      -9.34892927E-11
  0.713000000      -8.75456513E-11
  0.713999987      -7.90126645E-11
  0.714999974      -6.79966500E-11
  0.716000021      -5.46766035E-11
  0.717000008      -3.93029151E-11
  0.717999995      -2.21939984E-11
  0.718999982      -3.73083162E-12
  0.720000029       1.56505434E-11
  0.721000016       3.54684684E-11
  0.722000003       5.52069154E-11
  0.722999990       7.43282380E-11
  0.723999977       9.22872195E-11
  0.725000024       1.08546026E-10
  0.726000011       1.22589688E-10
  0.726999998       1.33941691E-10
  0.727999985       1.42179157E-10
  0.728999972       1.46947343E-10
  0.730000019       1.47972773E-10
  0.731000006       1.45074633E-10
  0.731999993       1.38174069E-10
  0.732999980       1.27300934E-10
  0.734000027       1.12597688E-10
  0.735000014       9.43202183E-11
  0.736000001       7.28353489E-11
  0.736999989       4.86150495E-11
  0.737999976       2.22272669E-11
  0.739000022      -5.67642461E-12
  0.740000010      -3.43761616E-11
  0.740999997      -6.31018154E-11
  0.741999984      -9.10532275E-11
  0.742999971      -1.17422211E-10
  0.744000018      -1.41415685E-10
  0.745000005      -1.62279273E-10
  0.745999992      -1.79320767E-10
  0.746999979      -1.91932636E-10
  0.748000026      -1.99612951E-10
  0.749000013      -2.01983971E-10
  0.750000000      -1.98807720E-10
  0.750999987      -1.89998031E-10
  0.751999974      -1.75628498E-10
  0.753000021      -1.55935917E-10
  0.754000008      -1.31319011E-10
  0.754999995      -1.02332226E-10
  0.755999982      -6.96746549E-11
  0.757000029      -3.41742155E-11
  0.758000016       3.23261556E-12
  0.759000003       4.15250057E-11
  0.759999990       7.96253202E-11
  0.760999978       1.16429338E-10
  0.762000024       1.50838272E-10
  0.763000011       1.81791623E-10
  0.763999999       2.08299974E-10
  0.764999986       2.29476563E-10
  0.765999973       2.44566839E-10
  0.767000020       2.52974863E-10
  0.768000007       2.54285620E-10
  0.768999994       2.48282533E-10
  0.769999981       2.34959441E-10
  0.771000028       2.14526508E-10
  0.772000015       1.87409671E-10
  0.773000002       1.54243451E-10
  0.773999989       1.15857254E-10
  0.774999976       7.32553046E-11
  0.776000023       2.75906884E-11
  0.777000010      -1.98658017E-11
  0.777999997      -6.77612688E-11
  0.778999984      -1.14699708E-10
  0.779999971      -1.59283253E-10
  0.781000018      -2.00154449E-10
  0.782000005      -2.36038328E-10
  0.782999992      -2.65782896E-10
  0.783999979      -2.88396557E-10
  0.785000026      -3.03081699E-10
  0.786000013      -3.09262782E-10
  0.787000000      -3.06608183E-10
  0.787999988      -2.95044933E-10
  0.788999975      -2.74765710E-10
  0.790000021      -2.46227816E-10
  0.791000009      -2.10143791E-10
  0.791999996      -1.67463945E-10
  0.792999983      -1.19351223E-10
  0.794000030      -6.71489531E-11
  0.795000017      -1.23424066E-11
  0.796000004       4.34846811E-11
  0.796999991       9.86973767E-11
  0.797999978       1.51659185E-10
  0.799000025       2.00782432E-10
  0.800000012       2.44577886E-10
  0.800999999       2.81702051E-10
  0.801999986       3.11000420E-10
  0.802999973       3.31545374E-10
  0.804000020       3.42667450E-10
  0.805000007       3.43978873E-10
  0.805999994       3.35388384E-10
  0.806999981       3.17106813E-10
  0.808000028       2.89643282E-10
  0.809000015       2.53791793E-10
  0.810000002       2.10608586E-10
  0.810999990       1.61380923E-10
  0.811999977       1.07588292E-10
  0.813000023       5.08570339E-11
  0.814000010      -7.09016873E-12
  0.814999998      -6.44882203E-11
  0.815999985      -1.19585383E-10
  0.816999972      -1.70699094E-10
  0.818000019      -2.16269849E-10
  0.819000006      -2.54911592E-10
  0.819999993      -2.85456825E-10
  0.820999980      -3.06994818E-10
  0.822000027      -3.18901849E-10
  0.823000014      -3.20862170E-10
  0.824000001      -3.12879112E-10
  0.824999988      -2.95275748E-10
  0.825999975      -2.68685157E-10
  0.827000022      -2.34030378E-10
  0.828000009      -1.92494826E-10
  0.828999996      -1.45483847E-10
  0.829999983      -9.45788656E-11
  0.830999970      -4.14853950E-11
  0.832000017       1.20232626E-11
  0.833000004       6.41648401E-11
  0.833999991       1.13207561E-10
  0.834999979       1.57528157E-10
  0.836000025       1.95666608E-10
  0.837000012       2.26375543E-10
  0.838000000       2.48662924E-10
  0.838999987       2.61826366E-10
  0.839999974       2.65477890E-10
  0.841000021       2.59558181E-10
  0.842000008       2.44339909E-10
  0.842999995       2.20419960E-10
  0.843999982       1.88700583E-10
  0.845000029       1.50360155E-10
  0.846000016       1.06814425E-10
  0.847000003       5.96694569E-11
  0.847999990       1.06678832E-11
  0.848999977      -3.83699218E-11
  0.850000024      -8.56077084E-11
  0.851000011      -1.29256272E-10
  0.851999998      -1.67635308E-10
  0.852999985      -1.99232034E-10
  0.853999972      -2.22754801E-10
  0.855000019      -2.37179637E-10
  0.856000006      -2.41788339E-10