   0.00000000       0.00000000    
   1.00000005E-03   0.00000000    
   2.00000009E-03   0.00000000    
   3.00000003E-03   0.00000000    
   4.00000019E-03   0.00000000    
   4.99999989E-03   0.00000000    
   6.00000005E-03   0.00000000    
   7.00000022E-03   0.00000000    
   8.00000038E-03   0.00000000    
   8.99999961E-03   0.00000000    
   9.99999978E-03   0.00000000    
   1.09999999E-02   0.00000000    
   1.20000001E-02   0.00000000    
   1.30000003E-02   0.00000000    
   1.40000004E-02   0.00000000    
   1.49999997E-02   0.00000000    
   1.60000008E-02   0.00000000    
   1.70000009E-02   0.00000000    
   1.79999992E-02   0.00000000    
   1.89999994E-02   0.00000000    
   1.99999996E-02   0.00000000    
   2.09999997E-02   0.00000000    
   2.19999999E-02   0.00000000    
   2.30000000E-02   1.44733799E-38
   2.40000002E-02   4.58542861E-38
   2.50000004E-02   1.25562912E-37
   2.60000005E-02   2.69707646E-37
   2.70000007E-02   5.14410344E-37
   2.80000009E-02   9.00885411E-37
   2.89999992E-02   1.47774640E-36
   2.99999993E-02   2.26376902E-36
   3.09999995E-02   3.21526906E-36
   3.20000015E-02   4.13417611E-36
   3.29999998E-02   4.52392703E-36
   3.40000018E-02   3.35816652E-36
   3.50000001E-02  -1.25916976E-36
   3.59999985E-02  -1.25550961E-35
   3.70000005E-02  -3.56971117E-35
   3.79999988E-02  -7.84991339E-35
   3.90000008E-02  -1.52156104E-34
   3.99999991E-02  -2.71846614E-34
   4.10000011E-02  -4.56919659E-34
   4.19999994E-02  -7.30236055E-34
   4.30000015E-02  -1.11604786E-33
   4.39999998E-02  -1.63559588E-33
   4.50000018E-02  -2.29940727E-33
   4.60000001E-02  -3.09512658E-33
   4.69999984E-02  -3.96968189E-33
   4.80000004E-02  -4.80475014E-33
   4.89999987E-02  -5.38495725E-33
   5.00000007E-02  -5.35914707E-33
   5.09999990E-02  -4.19651704E-33
   5.20000011E-02  -1.14156178E-33
   5.29999994E-02   4.82533084E-33
   5.40000014E-02   1.50110805E-32
   5.49999997E-02   3.10019708E-32
   5.60000017E-02   5.46047748E-32
   5.70000000E-02   8.77123204E-32
   5.79999983E-02   1.32064639E-31
   5.90000004E-02   1.88874447E-31
   5.99999987E-02   2.58286084E-31
   6.10000007E-02   3.38641961E-31
   6.19999990E-02   4.25541979E-31
   6.30000010E-02   5.10700386E-31
   6.40000030E-02   5.80634447E-31
   6.49999976E-02   6.15259245E-31
   6.59999996E-02   5.86516433E-31
   6.70000017E-02   4.57228746E-31
   6.80000037E-02   1.80446306E-31
   6.89999983E-02  -3.00369228E-31
   7.00000003E-02  -1.04989701E-30
   7.10000023E-02  -2.13775233E-30
   7.19999969E-02  -3.63298397E-30
   7.29999989E-02  -5.59572701E-30
   7.40000010E-02  -8.06551249E-30
   7.50000030E-02  -1.10458545E-29
   7.59999976E-02  -1.44849808E-29
   7.69999996E-02  -1.82528852E-29
   7.80000016E-02  -2.21153618E-29
   7.90000036E-02  -2.57063259E-29
   7.99999982E-02  -2.85004199E-29
   8.10000002E-02  -2.97888098E-29
   8.20000023E-02  -2.86620656E-29
   8.29999968E-02  -2.40049007E-29
   8.39999989E-02  -1.45086020E-29
   8.50000009E-02   1.29237780E-30
   8.60000029E-02   2.49526628E-29
   8.69999975E-02   5.80100812E-29
   8.79999995E-02   1.01835375E-28
   8.90000015E-02   1.57432652E-28
   9.00000036E-02   2.25188299E-28
   9.09999982E-02   3.04569571E-28
   9.20000002E-02   3.93779199E-28
   9.30000022E-02   4.89378510E-28
   9.39999968E-02   5.85898656E-28
   9.49999988E-02   6.75468987E-28
   9.60000008E-02   7.47499441E-28
   9.70000029E-02   7.88464838E-28
   9.79999974E-02   7.81846091E-28
   9.89999995E-02   7.08292322E-28
  0.100000001       5.46072158E-28
  0.101000004       2.71882977E-28
  0.101999998      -1.37915410E-28
  0.103000000      -7.05588124E-28
  0.104000002      -1.44979644E-27
  0.104999997      -2.38284219E-27
  0.105999999      -3.50741194E-27
  0.107000001      -4.81289354E-27
  0.108000003      -6.27139297E-27
  0.108999997      -7.83364455E-27
  0.109999999      -9.42507359E-27
  0.111000001      -1.09423512E-26
  0.112000003      -1.22508435E-26
  0.112999998      -1.31834203E-26
  0.114000000      -1.35411456E-26
  0.115000002      -1.30964022E-26
  0.115999997      -1.15989686E-26
  0.116999999      -8.78558473E-27
  0.118000001      -4.39338979E-27
  0.119000003       1.82247111E-27
  0.119999997       1.00670053E-26
  0.120999999       2.04794808E-26
  0.122000001       3.31039747E-26
  0.123000003       4.78572575E-26
  0.123999998       6.44953078E-26
  0.125000000       8.25801782E-26
  0.126000002       1.01449448E-25
  0.127000004       1.20190884E-25
  0.128000006       1.37625339E-25
  0.128999993       1.52301172E-25
  0.129999995       1.62503670E-25
  0.130999997       1.66282992E-25
  0.131999999       1.61503690E-25
  0.133000001       1.45918695E-25
  0.134000003       1.17269572E-25
  0.135000005       7.34140521E-26
  0.136000007       1.24800977E-26
  0.136999995      -6.69555677E-26
  0.137999997      -1.65668814E-25
  0.138999999      -2.83575577E-25
  0.140000001      -4.19514504E-25
  0.141000003      -5.71035258E-25
  0.142000005      -7.34206403E-25
  0.143000007      -9.03457250E-25
  0.143999994      -1.07147161E-24
  0.144999996      -1.22914932E-24
  0.145999998      -1.36565450E-24
  0.147000000      -1.46856742E-24
  0.148000002      -1.52415313E-24
  0.149000004      -1.51776079E-24
  0.150000006      -1.43435778E-24
  0.150999993      -1.25920216E-24
  0.151999995      -9.78645653E-25
  0.152999997      -5.81054383E-25
  0.153999999      -5.78225553E-26
  0.155000001       5.95551477E-25
  0.156000003       1.37837025E-24
  0.157000005       2.28367363E-24
  0.158000007       3.29726523E-24
  0.158999994       4.39689375E-24
  0.159999996       5.55165792E-24
  0.160999998       6.72170549E-24
  0.162000000       7.85828839E-24
  0.163000003       8.90424380E-24
  0.164000005       9.79494271E-24
  0.165000007       1.04597355E-23
  0.165999994       1.08239297E-23
  0.166999996       1.08112669E-23
  0.167999998       1.03468866E-23
  0.169000000       9.36070397E-24
  0.170000002       7.79111058E-24
  0.171000004       5.58889176E-24
  0.172000006       2.72120409E-24
  0.172999993      -8.24541577E-25
  0.173999995      -5.03707567E-24
  0.174999997      -9.87812888E-24
  0.175999999      -1.52799391E-23
  0.177000001      -2.11435817E-23
  0.178000003      -2.73382681E-23
  0.179000005      -3.37017314E-23
  0.180000007      -4.00417781E-23
  0.180999994      -4.61390165E-23
  0.181999996      -5.17507458E-23
  0.182999998      -5.66158593E-23
  0.184000000      -6.04606979E-23
  0.185000002      -6.30055190E-23
  0.186000004      -6.39714760E-23
  0.187000006      -6.30876868E-23
  0.187999994      -6.00981942E-23
  0.188999996      -5.47685679E-23
  0.189999998      -4.68918170E-23
  0.191000000      -3.62935749E-23
  0.192000002      -2.28364582E-23
  0.193000004      -6.42366753E-24
  0.194000006       1.29979444E-23
  0.194999993       3.54349408E-23
  0.195999995       6.08440275E-23
  0.196999997       8.91276823E-23
  0.197999999       1.20128054E-22
  0.199000001       1.53618115E-22
  0.200000003       1.89289370E-22
  0.201000005       2.26735335E-22
  0.202000007       2.65430212E-22
  0.202999994       3.04702485E-22
  0.203999996       3.43703692E-22
  0.204999998       3.81372924E-22
  0.206000000       4.16398626E-22
  0.207000002       4.47179574E-22
  0.208000004       4.71788097E-22
  0.209000006       4.87939424E-22
  0.209999993       4.92971473E-22
  0.210999995       4.83840882E-22
  0.211999997       4.57140881E-22
  0.213000000       4.09147442E-22
  0.214000002       3.35900331E-22
  0.215000004       2.33324810E-22
  0.216000006       9.73995137E-23
  0.216999993      -7.56257915E-23
  0.217999995      -2.88960507E-22
  0.218999997      -5.44952182E-22
  0.219999999      -8.44717710E-22
  0.221000001      -1.18773493E-21
  0.222000003      -1.57140507E-21
  0.223000005      -1.99060388E-21
  0.224000007      -2.43724143E-21
  0.224999994      -2.89985733E-21
  0.225999996      -3.36328022E-21
  0.226999998      -3.80838720E-21
  0.228000000      -4.21199964E-21
  0.229000002      -4.54695447E-21
  0.230000004      -4.78238752E-21
  0.231000006      -4.88426685E-21
  0.231999993      -4.81620823E-21
  0.232999995      -4.54059593E-21
  0.233999997      -4.02002265E-21
  0.234999999      -3.21905413E-21
  0.236000001      -2.10629992E-21
  0.237000003      -6.56760959E-22
  0.238000005       1.14559729E-21
  0.238999993       3.30512333E-21
  0.239999995       5.81170434E-21
  0.240999997       8.63805731E-21
  0.241999999       1.17372268E-20
  0.243000001       1.50404457E-20
  0.244000003       1.84555433E-20
  0.245000005       2.18660687E-20
  0.246000007       2.51313190E-20
  0.246999994       2.80874702E-20
  0.247999996       3.05499417E-20
  0.248999998       3.23171517E-20
  0.250000000       3.31757748E-20
  0.250999987       3.29075163E-20
  0.252000004       3.12974383E-20
  0.252999991       2.81437185E-20
  0.254000008       2.32687183E-20
  0.254999995       1.65310737E-20
  0.256000012       7.83851212E-21
  0.256999999      -2.83905996E-21
  0.257999986      -1.54567066E-20
  0.259000003      -2.98824457E-20
  0.259999990      -4.58867491E-20
  0.261000007      -6.31342307E-20
  0.261999995      -8.11783421E-20
  0.263000011      -9.94597122E-20
  0.263999999      -1.17308958E-19
  0.264999986      -1.33954507E-19
  0.266000003      -1.48535982E-19
  0.266999990      -1.60123581E-19
  0.268000007      -1.67743517E-19
  0.268999994      -1.70409649E-19
  0.270000011      -1.67160768E-19
  0.270999998      -1.57103183E-19
  0.272000015      -1.39457456E-19
  0.273000002      -1.13608191E-19
  0.273999989      -7.91553491E-20
  0.275000006      -3.59650246E-20
  0.275999993       1.57822264E-20
  0.277000010       7.55480209E-20
  0.277999997       1.42400176E-19
  0.279000014       2.14986787E-19
  0.280000001       2.91522876E-19
  0.280999988       3.69792127E-19
  0.282000005       4.47165826E-19
  0.282999992       5.20640868E-19
  0.284000009       5.86898138E-19
  0.284999996       6.42381898E-19
  0.286000013       6.83400234E-19
  0.287000000       7.06245308E-19
  0.287999988       7.07332120E-19
  0.289000005       6.83352257E-19
  0.289999992       6.31439384E-19
  0.291000009       5.49341036E-19
  0.291999996       4.35591553E-19
  0.293000013       2.89678702E-19
  0.294000000       1.12197744E-19
  0.294999987      -9.50157813E-20
  0.296000004      -3.28781856E-19
  0.296999991      -5.84508775E-19
  0.298000008      -8.56169622E-19
  0.298999995      -1.13633068E-18
  0.300000012      -1.41623547E-18
  0.300999999      -1.68595043E-18
  0.301999986      -1.93457321E-18
  0.303000003      -2.15050457E-18
  0.303999990      -2.32178141E-18
  0.305000007      -2.43646628E-18
  0.305999994      -2.48308494E-18
  0.307000011      -2.45110242E-18
  0.307999998      -2.33142448E-18
  0.308999985      -2.11690739E-18
  0.310000002      -1.80285938E-18
  0.310999990      -1.38751328E-18
  0.312000006      -8.72449519E-19
  0.312999994      -2.62947249E-19
  0.314000010       4.31757674E-19
  0.314999998       1.19832807E-18
  0.316000015       2.01931331E-18
  0.317000002       2.87328548E-18
  0.317999989       3.73513488E-18
  0.319000006       4.57653308E-18
  0.319999993       5.36656583E-18
  0.321000010       6.07252892E-18
  0.321999997       6.66087974E-18
  0.323000014       7.09832304E-18
  0.324000001       7.35300947E-18
  0.324999988       7.39581028E-18
  0.326000005       7.20163376E-18
  0.326999992       6.75074175E-18
  0.328000009       6.03001101E-18
  0.328999996       5.03409506E-18
  0.330000013       3.76642837E-18
  0.331000000       2.24002536E-18
  0.331999987       4.78020542E-19
  0.333000004      -1.48609552E-18
  0.333999991      -3.60858080E-18
  0.335000008      -5.83592135E-18
  0.335999995      -8.10569999E-18
  0.337000012      -1.03478657E-17
  0.338000000      -1.24863964E-17
  0.338999987      -1.44413261E-17
  0.340000004      -1.61311122E-17
  0.340999991      -1.74752707E-17
  0.342000008      -1.83972297E-17
  0.342999995      -1.88272991E-17
  0.344000012      -1.87056854E-17
  0.344999999      -1.79854228E-17
  0.345999986      -1.66351199E-17
  0.347000003      -1.46414112E-17
  0.347999990      -1.20109917E-17
  0.349000007      -8.77213376E-18
  0.349999994      -4.97557658E-18
  0.351000011      -6.94715082E-19
  0.351999998       3.97498335E-18
  0.352999985       8.91737923E-18
  0.354000002       1.39978911E-17
  0.354999989       1.90665479E-17
  0.356000006       2.39618143E-17
  0.356999993       2.85151326E-17
  0.358000010       3.25560389E-17
  0.358999997       3.59177671E-17
  0.360000014       3.84431230E-17
  0.361000001       3.99904835E-17
  0.361999989       4.04396988E-17
  0.363000005       3.96976748E-17
  0.363999993       3.77034184E-17
  0.365000010       3.44323227E-17
  0.365999997       2.98995053E-17
  0.367000014       2.41619788E-17
  0.368000001       1.73195176E-17
  0.368999988       9.51408996E-18
  0.370000005       9.27796484E-19
  0.370999992      -8.22074013E-18
  0.372000009      -1.76814802E-17
  0.372999996      -2.71794923E-17
  0.374000013      -3.64227509E-17
  0.375000000      -4.51110028E-17
  0.375999987      -5.29454686E-17
  0.377000004      -5.96390141E-17
  0.377999991      -6.49265379E-17
  0.379000008      -6.85751455E-17
  0.379999995      -7.03937253E-17
  0.381000012      -7.02415968E-17
  0.381999999      -6.80357708E-17
  0.382999986      -6.37565670E-17
  0.384000003      -5.74511942E-17
  0.384999990      -4.92351566E-17
  0.386000007      -3.92911916E-17
  0.386999995      -2.78657726E-17
  0.388000011      -1.52630870E-17
  0.388999999      -1.83662261E-18
  0.389999986       1.20214233E-17
  0.391000003       2.58926474E-17
  0.391999990       3.93464506E-17
  0.393000007       5.19550852E-17
  0.393999994       6.33092145E-17
  0.395000011       7.30333976E-17
  0.395999998       8.08008684E-17
  0.397000015       8.63469820E-17
  0.398000002       8.94807723E-17
  0.398999989       9.00940175E-17
  0.400000006       8.81673220E-17
  0.400999993       8.37728754E-17
  0.402000010       7.70735660E-17
  0.402999997       6.83183357E-17
  0.404000014       5.78337817E-17
  0.405000001       4.60121929E-17
  0.405999988       3.32963490E-17
  0.407000005       2.01615795E-17
  0.407999992       7.09572652E-18
  0.409000009      -5.42221648E-18
  0.409999996      -1.69438998E-17
  0.411000013      -2.70729233E-17
  0.412000000      -3.54846321E-17
  0.412999988      -4.19434403E-17
  0.414000005      -4.63167409E-17
  0.414999992      -4.85845459E-17
  0.416000009      -4.88441549E-17
  0.416999996      -4.73093213E-17
  0.418000013      -4.43035719E-17
  0.419000000      -4.02476142E-17
  0.419999987      -3.56410355E-17
  0.421000004      -3.10386919E-17
  0.421999991      -2.70225943E-17
  0.423000008      -2.41702374E-17
  0.423999995      -2.30206383E-17
  0.425000012      -2.40395097E-17
  0.425999999      -2.75851930E-17
  0.426999986      -3.38770298E-17
  0.428000003      -4.29679035E-17
  0.428999990      -5.47226562E-17
  0.430000007      -6.88039040E-17
  0.430999994      -8.46666473E-17
  0.432000011      -1.01562764E-16
  0.432999998      -1.18556038E-16
  0.433999985      -1.34548166E-16
  0.435000002      -1.48315482E-16
  0.435999990      -1.58555806E-16
  0.437000006      -1.63944299E-16
  0.437999994      -1.63196607E-16
  0.439000010      -1.55137115E-16
  0.439999998      -1.38769897E-16
  0.441000015      -1.13349274E-16
  0.442000002      -7.84468910E-17
  0.442999989      -3.40119463E-17
  0.444000006       1.95788026E-17
  0.444999993       8.14844173E-17
  0.446000010       1.50379596E-16
  0.446999997       2.24453381E-16
  0.448000014       3.01428771E-16
  0.449000001       3.78604537E-16
  0.449999988       4.52919740E-16
  0.451000005       5.21040353E-16
  0.451999992       5.79466727E-16
  0.453000009       6.24659482E-16
  0.453999996       6.53180510E-16
  0.455000013       6.61844281E-16
  0.456000000       6.47875120E-16
  0.456999987       6.09063858E-16
  0.458000004       5.43917866E-16
  0.458999991       4.51797474E-16
  0.460000008       3.33032179E-16
  0.460999995       1.89010227E-16
  0.462000012       2.22350384E-17
  0.463000000      -1.63656586E-16
  0.463999987      -3.63918812E-16
  0.465000004      -5.72766855E-16
  0.465999991      -7.83493935E-16
  0.467000008      -9.88635257E-16
  0.467999995      -1.18017683E-15
  0.469000012      -1.34980439E-15
  0.469999999      -1.48918821E-15
  0.470999986      -1.59029398E-15
  0.472000003      -1.64571111E-15
  0.472999990      -1.64898850E-15
  0.474000007      -1.59496315E-15
  0.474999994      -1.48007107E-15
  0.476000011      -1.30262614E-15
  0.476999998      -1.06305229E-15
  0.477999985      -7.64059559E-16
  0.479000002      -4.10749411E-16
  0.479999989      -1.06411211E-17
  0.481000006       4.26388604E-16
  0.481999993       8.88257935E-16
  0.483000010       1.36092582E-15
  0.483999997       1.82873079E-15
  0.485000014       2.27481625E-15
  0.486000001       2.68163537E-15
  0.486999989       3.03152202E-15
  0.488000005       3.30731278E-15
  0.488999993       3.49300167E-15
  0.490000010       3.57440492E-15
  0.490999997       3.53981464E-15
  0.492000014       3.38061501E-15
  0.493000001       3.09183501E-15
  0.493999988       2.67261744E-15
  0.495000005       2.12657447E-15
  0.495999992       1.46201465E-15
  0.497000009       6.92018400E-16
  0.497999996      -1.65648093E-16
  0.499000013      -1.08879108E-15
  0.500000000      -2.05122284E-15
  0.500999987      -3.02336785E-15
  0.501999974      -3.97303260E-15
  0.503000021      -4.86632202E-15
  0.504000008      -5.66868372E-15
  0.504999995      -6.34604792E-15
  0.505999982      -6.86603467E-15
  0.507000029      -7.19918543E-15
  0.508000016      -7.32017986E-15
  0.509000003      -7.20899577E-15
  0.509999990      -6.85196842E-15
  0.510999978      -6.24269550E-15
  0.512000024      -5.38276351E-15
  0.513000011      -4.28224325E-15
  0.513999999      -2.95992847E-15
  0.514999986      -1.44329406E-15
  0.515999973       2.31845994E-16
  0.517000020       2.02198686E-15
  0.518000007       3.87688335E-15
  0.518999994       5.74079163E-15
  0.519999981       7.55397450E-15
  0.521000028       9.25443380E-15
  0.522000015       1.07798317E-14
  0.523000002       1.20695385E-14
  0.523999989       1.30667461E-14
  0.524999976       1.37205810E-14
  0.526000023       1.39881503E-14
  0.527000010       1.38364314E-14
  0.527999997       1.32439480E-14
  0.528999984       1.22021559E-14
  0.529999971       1.07164779E-14
  0.531000018       8.80693105E-15
  0.532000005       6.50830047E-15
  0.532999992       3.86983858E-15
  0.533999979       9.54461607E-16
  0.535000026      -2.16254690E-15
  0.536000013      -5.39531273E-15
  0.537000000      -8.64959214E-15
  0.537999988      -1.18253855E-14
  0.538999975      -1.48198765E-14
  0.540000021      -1.75306174E-14
  0.541000009      -1.98588552E-14
  0.541999996      -2.17129103E-14
  0.542999983      -2.30114915E-14
  0.544000030      -2.36868173E-14
  0.545000017      -2.36874593E-14
  0.546000004      -2.29807780E-14
  0.546999991      -2.15548557E-14
  0.547999978      -1.94198380E-14
  0.549000025      -1.66086220E-14
  0.550000012      -1.31768206E-14
  0.550999999      -9.20198722E-15
  0.551999986      -4.78208925E-15
  0.552999973      -3.32461094E-17
  0.554000020       4.91322520E-15
  0.555000007       9.91438428E-15
  0.555999994       1.48197698E-14
  0.556999981       1.94759183E-14
  0.558000028       2.37311662E-14
  0.559000015       2.74405776E-14
  0.560000002       3.04708583E-14
  0.560999990       3.27050703E-14
  0.561999977       3.40470043E-14
  0.563000023       3.44250182E-14
  0.564000010       3.37952492E-14
  0.564999998       3.21440059E-14
  0.565999985       2.94892759E-14
  0.566999972       2.58812425E-14
  0.568000019       2.14017731E-14
  0.569000006       1.61628506E-14
  0.569999993       1.03039576E-14
  0.570999980       3.98847867E-15
  0.572000027      -2.60080641E-15
  0.573000014      -9.26701309E-15
  0.574000001      -1.58050774E-14
  0.574999988      -2.20081403E-14
  0.575999975      -2.76741893E-14
  0.577000022      -3.26127675E-14
  0.578000009      -3.66514680E-14
  0.578999996      -3.96420804E-14
  0.579999983      -4.14660914E-14
  0.580999970      -4.20393904E-14
  0.582000017      -4.13159463E-14
  0.583000004      -3.92903754E-14
  0.583999991      -3.59992086E-14
  0.584999979      -3.15208166E-14
  0.586000025      -2.59739604E-14
  0.587000012      -1.95149513E-14
  0.588000000      -1.23334985E-14
  0.588999987      -4.64733139E-15
  0.589999974       3.30424080E-15
  0.591000021       1.12676600E-14
  0.592000008       1.89831095E-14
  0.592999995       2.61929150E-14
  0.593999982       3.26500945E-14
  0.595000029       3.81267554E-14
  0.596000016       4.24220697E-14
  0.597000003       4.53695546E-14
  0.597999990       4.68433580E-14
  0.598999977       4.67633778E-14
  0.600000024       4.50989513E-14
  0.601000011       4.18710070E-14
  0.601999998       3.71525354E-14
  0.602999985       3.10673457E-14
  0.603999972       2.37871144E-14
  0.605000019       1.55267644E-14
  0.606000006       6.53832355E-15
  0.606999993      -2.89659412E-15
  0.607999980      -1.24754265E-14
  0.609000027      -2.18841855E-14
  0.610000014      -3.08075404E-14
  0.611000001      -3.89391515E-14
  0.611999989      -4.59918799E-14
  0.612999976      -5.17075735E-14
  0.614000022      -5.58660682E-14
  0.615000010      -5.82930717E-14
  0.615999997      -5.88667027E-14
  0.616999984      -5.75223666E-14
  0.617999971      -5.42558586E-14
  0.619000018      -4.91244720E-14
  0.620000005      -4.22461714E-14
  0.620999992      -3.37966891E-14
  0.621999979      -2.40047121E-14
  0.623000026      -1.31452729E-14
  0.624000013      -1.53152726E-15
  0.625000000       1.04948077E-14
  0.625999987       2.25740481E-14
  0.626999974       3.43398338E-14
  0.628000021       4.54307307E-14
  0.629000008       5.55017695E-14
  0.629999995       6.42355093E-14
  0.630999982       7.13522665E-14
  0.632000029       7.66191852E-14
  0.633000016       7.98577377E-14
  0.634000003       8.09495496E-14
  0.634999990       7.98401736E-14
  0.635999978       7.65408380E-14
  0.637000024       7.11279722E-14
  0.638000011       6.37406252E-14
  0.638999999       5.45757931E-14
  0.639999986       4.38818835E-14
  0.640999973       3.19504927E-14
  0.642000020       1.91068237E-14
  0.643000007       5.69905324E-15
  0.643999994      -7.91294198E-15
  0.644999981      -2.13691183E-14
  0.646000028      -3.43206536E-14
  0.647000015      -4.64407565E-14
  0.648000002      -5.74345462E-14
  0.648999989      -6.70476451E-14
  0.649999976      -7.50731739E-14
  0.651000023      -8.13569183E-14
  0.652000010      -8.58005344E-14
  0.652999997      -8.83626126E-14
  0.653999984      -8.90576946E-14
  0.654999971      -8.79532382E-14
  0.656000018      -8.51647041E-14
  0.657000005      -8.08489763E-14
  0.657999992      -7.51964612E-14
  0.658999979      -6.84220746E-14
  0.660000026      -6.07556675E-14
  0.661000013      -5.24321458E-14
  0.662000000      -4.36818177E-14
  0.662999988      -3.47212900E-14
  0.663999975      -2.57453716E-14
  0.665000021      -1.69202759E-14
  0.666000009      -8.37844503E-15
  0.666999996      -2.15212781E-16
  0.667999983       7.51255883E-15
  0.669000030       1.47857953E-14
  0.670000017       2.16205228E-14
  0.671000004       2.80632739E-14
  0.671999991       3.41848166E-14
  0.672999978       4.00724748E-14
  0.674000025       4.58214162E-14
  0.675000012       5.15252751E-14
  0.675999999       5.72666033E-14
  0.676999986       6.31076070E-14
  0.677999973       6.90816423E-14
  0.679000020       7.51859377E-14
  0.680000007       8.13758986E-14
  0.680999994       8.75614685E-14
  0.681999981       9.36057533E-14
  0.683000028       9.93261192E-14
  0.684000015       1.04497845E-13
  0.685000002       1.08860376E-13
  0.685999990       1.12125993E-13
  0.686999977       1.13990658E-13
  0.688000023       1.14146729E-13
  0.689000010       1.12297114E-13
  0.689999998       1.08170207E-13
  0.690999985       1.01535174E-13
  0.691999972       9.22168564E-14
  0.693000019       8.01096453E-14
  0.694000006       6.51896885E-14
  0.694999993       4.75247859E-14
  0.695999980       2.72814184E-14
  0.697000027       4.72843098E-15
  0.698000014      -1.97630083E-14
  0.699000001      -4.57234348E-14
  0.699999988      -7.25931766E-14
  0.700999975      -9.97344839E-14
  0.702000022      -1.26447477E-13
  0.703000009      -1.51989559E-13
  0.703999996      -1.75597709E-13
  0.704999983      -1.96513135E-13
  0.705999970      -2.14007346E-13
  0.707000017      -2.27408804E-13
  0.708000004      -2.36129367E-13
  0.708999991      -2.39689182E-13
  0.709999979      -2.37739407E-13
  0.711000025      -2.30081497E-13
  0.712000012      -2.16682548E-13
  0.713000000      -1.97685401E-13
  0.713999987      -1.73413340E-13
  0.714999974      -1.44368648E-13
  0.716000021      -1.11224899E-13
  0.717000008      -7.48127959E-14
  0.717999995      -3.60998666E-14
  0.718999982       3.83563327E-15
  0.720000029       4.38359777E-14
  0.721000016       8.26995197E-14
  0.722000003       1.19219508E-13
  0.722999990       1.52224926E-13
  0.723999977       1.80621970E-13
  0.725000024       2.03434884E-13
  0.726000011       2.19844528E-13
  0.726999998       2.29223243E-13
  0.727999985       2.31164724E-13
  0.728999972       2.25507452E-13
  0.730000019       2.12350699E-13
  0.731000006       1.92062105E-13
  0.731999993       1.65276267E-13
  0.732999980       1.32883884E-13
  0.734000027       9.60114421E-14
  0.735000014       5.59916934E-14
  0.736000001       1.43255548E-14
  0.736999989      -2.73636602E-14
  0.737999976      -6.73824467E-14
  0.739000022      -1.04024184E-13
  0.740000010      -1.35629463E-13
  0.740999997      -1.60647564E-13
  0.741999984      -1.77697131E-13
  0.742999971      -1.85623855E-13
  0.744000018      -1.83553178E-13
  0.745000005      -1.70935735E-13
  0.745999992      -1.47583917E-13
  0.746999979      -1.13697707E-13
  0.748000026      -6.98785173E-14
  0.749000013      -1.71299403E-14
  0.750000000       4.31551089E-14
  0.750999987       1.09221205E-13
  0.751999974       1.78990747E-13
  0.753000021       2.50117283E-13
  0.754000008       3.20050301E-13
  0.754999995       3.86110333E-13
  0.755999982       4.45571911E-13
  0.757000029       4.95752148E-13
  0.758000016       5.34102276E-13
  0.759000003       5.58299338E-13
  0.759999990       5.66334902E-13
  0.760999978       5.56597845E-13
  0.762000024       5.27948182E-13
  0.763000011       4.79779356E-13
  0.763999999       4.12066160E-13
  0.764999986       3.25396502E-13
  0.765999973       2.20984973E-13
  0.767000020       1.00667365E-13
  0.768000007      -3.31247752E-14
  0.768999994      -1.77409357E-13
  0.769999981      -3.28718200E-13
  0.771000028      -4.83179252E-13
  0.772000015      -6.36615110E-13
  0.773000002      -7.84654785E-13
  0.773999989      -9.22856193E-13
  0.774999976      -1.04683558E-12
  0.776000023      -1.15240066E-12
  0.777000010      -1.23568256E-12
  0.777999997      -1.29326367E-12
  0.778999984      -1.32229579E-12
  0.779999971      -1.32060595E-12
  0.781000018      -1.28678535E-12
  0.782000005      -1.22025903E-12
  0.782999992      -1.12133209E-12
  0.783999979      -9.91211778E-13
  0.785000026      -8.32003032E-13
  0.786000013      -6.46677482E-13
  0.787000000      -4.39015577E-13
  0.787999988      -2.13522884E-13
  0.788999975       2.46771597E-14
  0.790000021       2.69972087E-13
  0.791000009       5.16406958E-13
  0.791999996       7.57844850E-13
  0.792999983       9.88136873E-13
  0.794000030       1.20129633E-12
  0.795000017       1.39167248E-12
  0.796000004       1.55411805E-12
  0.796999991       1.68414555E-12
  0.797999978       1.77806684E-12
  0.799000025       1.83311244E-12
  0.800000012       1.84752560E-12
  0.800999999       1.82062720E-12
  0.801999986       1.75285134E-12
  0.802999973       1.64574626E-12
  0.804000020       1.50194343E-12
  0.805000007       1.32509325E-12
  0.805999994       1.11976921E-12
  0.806999981       8.91342718E-13
  0.808000028       6.45832021E-13
  0.809000015       3.89730105E-13
  0.810000002       1.29815714E-13
  0.810999990      -1.27046567E-13
  0.811999977      -3.74111007E-13
  0.813000023      -6.04954075E-13
  0.814000010      -8.13669770E-13
  0.814999998      -9.95050938E-13
  0.815999985      -1.14475053E-12
  0.816999972      -1.25941759E-12
  0.818000019      -1.33680285E-12
  0.819000006      -1.37583120E-12
  0.819999993      -1.37663687E-12
  0.820999980      -1.34056048E-12
  0.822000027      -1.27010815E-12
  0.823000014      -1.16887175E-12
  0.824000001      -1.04141435E-12
  0.824999988      -8.93122544E-13
  0.825999975      -7.30030348E-13
  0.827000022      -5.58620858E-13
  0.828000009      -3.85610353E-13
  0.828999996      -2.17722948E-13
  0.829999983      -6.14620862E-14
  0.830999970       7.71132832E-14
  0.832000017       1.92600534E-13
  0.833000004       2.80446185E-13
  0.833999991       3.37112879E-13
  0.834999979       3.60215005E-13
  0.836000025       3.48617673E-13
  0.837000012       3.02495496E-13
  0.838000000       2.23348372E-13
  0.838999987       1.13973325E-13
  0.839999974      -2.16076445E-14
  0.841000021      -1.78261878E-13
  0.842000008      -3.49899580E-13
  0.842999995      -5.29662035E-13
  0.843999982      -7.10139358E-13
  0.845000029      -8.83610080E-13
  0.846000016      -1.04229667E-12
  0.847000003      -1.17862772E-12
  0.847999990      -1.28549829E-12
  0.848999977      -1.35652112E-12
  0.850000024      -1.38625884E-12
  0.851000011      -1.37043090E-12
  0.851999998      -1.30608566E-12
  0.852999985      -1.19173540E-12
  0.853999972      -1.02744473E-12
  0.855000019      -8.14872475E-13
  0.856000006      -5.57263166E-13