   0.00000000       0.00000000    
   1.00000005E-03   0.00000000    
   2.00000009E-03   0.00000000    
   3.00000003E-03   0.00000000    
   4.00000019E-03   0.00000000    
   4.99999989E-03   0.00000000    
   6.00000005E-03  -1.33317315E-24
   7.00000022E-03  -1.68592765E-23
   8.00000038E-03  -1.14297097E-22
   8.99999961E-03  -5.50999779E-22
   9.99999978E-03  -2.11522745E-21
   1.09999999E-02  -6.86948538E-21
   1.20000001E-02  -1.95889116E-20
   1.30000003E-02  -5.02840606E-20
   1.40000004E-02  -1.18262038E-19
   1.49999997E-02  -2.58168859E-19
   1.60000008E-02  -5.28316328E-19
   1.70000009E-02  -1.02127048E-18
   1.79999992E-02  -1.87611470E-18
   1.89999994E-02  -3.29096764E-18
   1.99999996E-02  -5.53322163E-18
   2.09999997E-02  -8.94364553E-18
   2.19999999E-02  -1.39289903E-17
   2.30000000E-02  -2.09363847E-17
   2.40000002E-02  -3.04015577E-17
   2.50000004E-02  -4.26624423E-17
   2.60000005E-02  -5.78300627E-17
   2.70000007E-02  -7.56101975E-17
   2.80000009E-02  -9.50724868E-17
   2.89999992E-02  -1.14369234E-16
   2.99999993E-02  -1.30412859E-16
   3.09999995E-02  -1.38530147E-16
   3.20000015E-02  -1.32123958E-16
   3.29999998E-02  -1.02381911E-16
   3.40000018E-02  -3.80889342E-17
   3.50000001E-02   7.43936597E-17
   3.59999985E-02   2.50903362E-16
   3.70000005E-02   5.08929794E-16
   3.79999988E-02   8.66661136E-16
   3.90000008E-02   1.34155651E-15
   3.99999991E-02   1.94838860E-15
   4.10000011E-02   2.69673013E-15
   4.19999994E-02   3.58789562E-15
   4.30000015E-02   4.61142058E-15
   4.39999998E-02   5.74118593E-15
   4.50000018E-02   6.93140105E-15
   4.60000001E-02   8.11272487E-15
   4.69999984E-02   9.18886667E-15
   4.80000004E-02   1.00340921E-14
   4.89999987E-02   1.04921353E-14
   5.00000007E-02   1.03770167E-14
   5.09999990E-02   9.47626411E-15
   5.20000011E-02   7.55714833E-15
   5.29999994E-02   4.37623087E-15
   5.40000014E-02  -3.07420126E-16
   5.49999997E-02  -6.71514380E-15
   5.60000017E-02  -1.50279179E-14
   5.70000000E-02  -2.53622722E-14
   5.79999983E-02  -3.77434392E-14
   5.90000004E-02  -5.20770662E-14
   5.99999987E-02  -6.81205648E-14
   6.10000007E-02  -8.54560902E-14
   6.19999990E-02  -1.03467216E-13
   6.30000010E-02  -1.21321654E-13
   6.40000030E-02  -1.37962287E-13
   6.49999976E-02  -1.52109919E-13
   6.59999996E-02  -1.62279044E-13
   6.70000017E-02  -1.66810034E-13
   6.80000037E-02  -1.63918697E-13
   6.89999983E-02  -1.51764818E-13
   7.00000003E-02  -1.28539527E-13
   7.10000023E-02  -9.25713363E-14
   7.19999969E-02  -4.24477924E-14
   7.29999989E-02   2.28492609E-14
   7.40000010E-02   1.03801211E-13
   7.50000030E-02   2.00207160E-13
   7.59999976E-02   3.11045162E-13
   7.69999996E-02   4.34346325E-13
   7.80000016E-02   5.67093573E-13
   7.90000036E-02   7.05153709E-13
   7.99999982E-02   8.43252605E-13
   8.10000002E-02   9.75003715E-13
   8.20000023E-02   1.09299885E-12
   8.29999968E-02   1.18896624E-12
   8.39999989E-02   1.25400103E-12
   8.50000009E-02   1.27887002E-12
   8.60000029E-02   1.25438624E-12
   8.69999975E-02   1.17185190E-12
   8.79999995E-02   1.02354941E-12
   8.90000015E-02   8.03277638E-13
   9.00000036E-02   5.06903438E-13
   9.09999982E-02   1.32907655E-13
   9.20000002E-02  -3.17095715E-13
   9.30000022E-02  -8.37908681E-13
   9.39999968E-02  -1.42038443E-12
   9.49999988E-02  -2.05119580E-12
   9.60000008E-02  -2.71274799E-12
   9.70000029E-02  -3.38328085E-12
   9.79999974E-02  -4.03717120E-12
   9.89999995E-02  -4.64545546E-12
  0.100000001      -5.17657792E-12
  0.101000004      -5.59736068E-12
  0.101999998      -5.87418352E-12
  0.103000000      -5.97435903E-12
  0.104000002      -5.86763103E-12
  0.104999997      -5.52779827E-12
  0.105999999      -4.93435241E-12
  0.107000001      -4.07410954E-12
  0.108000003      -2.94270467E-12
  0.108999997      -1.54593417E-12
  0.109999999       9.92054136E-14
  0.111000001       1.96380824E-12
  0.112000003       4.00677408E-12
  0.112999998       6.17499498E-12
  0.114000000       8.40410033E-12
  0.115000002       1.06197265E-11
  0.115999997       1.27393590E-11
  0.116999999       1.46747180E-11
  0.118000001       1.63346437E-11
  0.119000003       1.76284057E-11
  0.119999997       1.84693129E-11
  0.120999999       1.87785516E-11
  0.122000001       1.84890801E-11
  0.123000003       1.75494098E-11
  0.123999998       1.59270878E-11
  0.125000000       1.36117654E-11
  0.126000002       1.06176231E-11
  0.127000004       6.98499548E-12
  0.128000006       2.78114489E-12
  0.128999993      -1.90010009E-12
  0.129999995      -6.93970272E-12
  0.130999997      -1.21959899E-11
  0.131999999      -1.75082691E-11
  0.133000001      -2.27015091E-11
  0.134000003      -2.75919496E-11
  0.135000005      -3.19935051E-11
  0.136000007      -3.57245310E-11
  0.136999995      -3.86150625E-11
  0.137999997      -4.05139255E-11
  0.138999999      -4.12954983E-11
  0.140000001      -4.08659391E-11
  0.141000003      -3.91683873E-11
  0.142000005      -3.61869562E-11
  0.143000007      -3.19492870E-11
  0.143999994      -2.65274851E-11
  0.144999996      -2.00371768E-11
  0.145999998      -1.26348480E-11
  0.147000000      -4.51337709E-12
  0.148000002       4.10412112E-12
  0.149000004       1.29718259E-11
  0.150000006       2.18300742E-11
  0.150999993       3.04147332E-11
  0.151999995       3.84672814E-11
  0.152999997       4.57445228E-11
  0.153999999       5.20278924E-11
  0.155000001       5.71318028E-11
  0.156000003       6.09102699E-11
  0.157000005       6.32620553E-11
  0.158000007       6.41333237E-11
  0.158999994       6.35181283E-11
  0.159999996       6.14564788E-11
  0.160999998       5.80299975E-11
  0.162000000       5.33553861E-11
  0.163000003       4.75760334E-11
  0.164000005       4.08524534E-11
  0.165000007       3.33515403E-11
  0.165999994       2.52359158E-11
  0.166999996       1.66539560E-11
  0.167999998       7.73076742E-12
  0.169000000      -1.43842696E-12
  0.170000002      -1.07924459E-11
  0.171000004      -2.03053893E-11
  0.172000006      -2.99835677E-11
  0.172999993      -3.98595462E-11
  0.173999995      -4.99818520E-11
  0.174999997      -6.04017530E-11
  0.175999999      -7.11568790E-11
  0.177000001      -8.22529891E-11
  0.178000003      -9.36444811E-11
  0.179000005      -1.05215607E-10
  0.180000007      -1.16762933E-10
  0.180999994      -1.27981015E-10
  0.181999996      -1.38452486E-10
  0.182999998      -1.47644785E-10
  0.184000000      -1.54913291E-10
  0.185000002      -1.59513458E-10
  0.186000004      -1.60621336E-10
  0.187000006      -1.57363622E-10
  0.187999994      -1.48857079E-10
  0.188999996      -1.34254843E-10
  0.189999998      -1.12801220E-10
  0.191000000      -8.38900685E-11
  0.192000002      -4.71268198E-11
  0.193000004      -2.38945495E-12
  0.194000006       5.01138471E-11
  0.194999993       1.09794021E-10
  0.195999995       1.75641376E-10
  0.196999997       2.46199838E-10
  0.197999999       3.19559657E-10
  0.199000001       3.93368921E-10
  0.200000003       4.64870170E-10
  0.201000005       5.30958444E-10
  0.202000007       5.88266880E-10
  0.202999994       6.33273600E-10
  0.203999996       6.62431943E-10
  0.204999998       6.72320033E-10
  0.206000000       6.59803767E-10
  0.207000002       6.22208340E-10
  0.208000004       5.57494106E-10
  0.209000006       4.64423722E-10
  0.209999993       3.42720019E-10
  0.210999995       1.93196972E-10
  0.211999997       1.78641320E-11
  0.213000000      -1.80008466E-10
  0.214000002      -3.95873001E-10
  0.215000004      -6.23934626E-10
  0.216000006      -8.57239835E-10
  0.216999993      -1.08782472E-09
  0.217999995      -1.30691635E-09
  0.218999997      -1.50519597E-09
  0.219999999      -1.67310676E-09
  0.221000001      -1.80120741E-09
  0.222000003      -1.88055815E-09
  0.223000005      -1.90312233E-09
  0.224000007      -1.86217619E-09
  0.224999994      -1.75270498E-09
  0.225999996      -1.57176872E-09
  0.226999998      -1.31881950E-09
  0.228000000      -9.95955984E-10
  0.229000002      -6.08095019E-10
  0.230000004      -1.63043065E-10
  0.231000006       3.28532784E-10
  0.231999993       8.53257354E-10
  0.232999995       1.39531819E-09
  0.233999997       1.93685445E-09
  0.234999999       2.45846432E-09
  0.236000001       2.93981617E-09
  0.237000003       3.36034556E-09
  0.238000005       3.70002140E-09
  0.238999993       3.94015798E-09
  0.239999995       4.06423784E-09
  0.240999997       4.05871292E-09
  0.241999999       3.91376265E-09
  0.243000001       3.62395558E-09
  0.244000003       3.18880478E-09
  0.245000005       2.61315480E-09
  0.246000007       1.90741267E-09
  0.246999994       1.08755660E-09
  0.247999996       1.74948597E-10
  0.248999998      -8.04090516E-10
  0.250000000      -1.81892112E-09
  0.250999987      -2.83544632E-09
  0.252000004      -3.81715992E-09
  0.252999991      -4.72637263E-09
  0.254000008      -5.52556179E-09
  0.254999995      -6.17880636E-09
  0.256000012      -6.65327526E-09
  0.256999999      -6.92066804E-09
  0.257999986      -6.95860303E-09
  0.259000003      -6.75184930E-09
  0.259999990      -6.29336849E-09
  0.261000007      -5.58511726E-09
  0.261999995      -4.63852778E-09
  0.263000011      -3.47467433E-09
  0.263999999      -2.12406204E-09
  0.264999986      -6.26044105E-10
  0.266000003       9.72147585E-10
  0.266999990       2.61673017E-09
  0.268000007       4.24904734E-09
  0.268999994       5.80751447E-09
  0.270000011       7.22982341E-09
  0.270999998       8.45527648E-09
  0.272000015       9.42723055E-09
  0.273000002       1.00954889E-08
  0.273999989       1.04186162E-08
  0.275000006       1.03660209E-08
  0.275999993       9.91975746E-09
  0.277000010       9.07591602E-09
  0.277999997       7.84556331E-09
  0.279000014       6.25514751E-09
  0.280000001       4.34632641E-09
  0.280999988       2.17518981E-09
  0.282000005      -1.89110380E-10
  0.282999992      -2.66632760E-09
  0.284000009      -5.16762011E-09
  0.284999996      -7.59851382E-09
  0.286000013      -9.86225146E-09
  0.287000000      -1.18634160E-08
  0.287999988      -1.35116673E-08
  0.289000005      -1.47255133E-08
  0.289999992      -1.54358979E-08
  0.291000009      -1.55895297E-08
  0.291999996      -1.51517305E-08
  0.293000013      -1.41087373E-08
  0.294000000      -1.24692932E-08
  0.294999987      -1.02654516E-08
  0.296000004      -7.55250884E-09
  0.296999991      -4.40804149E-09
  0.298000008      -9.30021504E-10
  0.298999995       2.76594503E-09
  0.300000012       6.55020171E-09
  0.300999999       1.02833360E-08
  0.301999986       1.38210785E-08
  0.303000003       1.70195857E-08
  0.303999990       1.97410035E-08
  0.305000007       2.18590248E-08
  0.305999994       2.32642883E-08
  0.307000011       2.38693456E-08
  0.307999998       2.36130244E-08
  0.308999985       2.24640004E-08
  0.310000002       2.04233253E-08
  0.310999990       1.75258794E-08
  0.312000006       1.38405394E-08
  0.312999994       9.46907797E-09
  0.314000010       4.54373206E-09
  0.314999998      -7.76508358E-10
  0.316000015      -6.31078256E-09
  0.317000002      -1.18623138E-08
  0.317999989      -1.72252133E-08
  0.319000006      -2.21919052E-08
  0.319999993      -2.65609721E-08
  0.321000010      -3.01450136E-08
  0.321999997      -3.27783702E-08
  0.323000014      -3.43242696E-08
  0.324000001      -3.46811539E-08
  0.324999988      -3.37879591E-08
  0.326000005      -3.16279980E-08
  0.326999992      -2.82313142E-08
  0.328000009      -2.36753550E-08
  0.328999996      -1.80838597E-08
  0.330000013      -1.16238965E-08
  0.331000000      -4.50119808E-09
  0.331999987       3.04619219E-09
  0.333000004       1.07557305E-08
  0.333999991       1.83493736E-08
  0.335000008       2.55435335E-08
  0.335999995       3.20595461E-08
  0.337000012       3.76343401E-08
  0.338000000       4.20308908E-08
  0.338999987       4.50479973E-08
  0.340000004       4.65290384E-08
  0.340999991       4.63693581E-08
  0.342000008       4.45218689E-08
  0.342999995       4.10006358E-08
  0.344000012       3.58823016E-08
  0.344999999       2.93051521E-08
  0.345999986       2.14657767E-08
  0.347000003       1.26134578E-08
  0.347999990       3.04237990E-09
  0.349000007      -6.91813673E-09
  0.349999994      -1.69149814E-08
  0.351000011      -2.65838196E-08
  0.351999998      -3.55624898E-08
  0.352999985      -4.35046132E-08
  0.354000002      -5.00931137E-08
  0.354999989      -5.50527730E-08
  0.356000006      -5.81617385E-08
  0.356999993      -5.92611897E-08
  0.358000010      -5.82628239E-08
  0.358999997      -5.51539436E-08
  0.360000014      -4.99997164E-08
  0.361000001      -4.29425349E-08
  0.361999989      -3.41984254E-08
  0.363000005      -2.40505749E-08
  0.363999993      -1.28400970E-08
  0.365000010      -9.54464729E-10
  0.365999997       1.11861835E-08
  0.367000014       2.31442066E-08
  0.368000001       3.44806530E-08
  0.368999988       4.47718342E-08
  0.370000005       5.36256550E-08
  0.370999992       6.06970190E-08
  0.372000009       6.57017907E-08
  0.372999996       6.84286121E-08
  0.374000013       6.87482000E-08
  0.375000000       6.66196200E-08
  0.375999987       6.20932354E-08
  0.377000004       5.53102169E-08
  0.377999991       4.64985632E-08
  0.379000008       3.59655097E-08
  0.379999995       2.40870150E-08
  0.381000012       1.12941434E-08
  0.381999999      -1.94275507E-09
  0.382999986      -1.51317501E-08
  0.384000003      -2.77780483E-08
  0.384999990      -3.94032185E-08
  0.386000007      -4.95639298E-08
  0.386999995      -5.78697197E-08
  0.388000011      -6.39988400E-08
  0.388999999      -6.77116319E-08
  0.389999986      -6.88608637E-08
  0.391000003      -6.73985028E-08
  0.391999990      -6.33787067E-08
  0.393000007      -5.69567007E-08
  0.393999994      -4.83836651E-08
  0.395000011      -3.79976797E-08
  0.395999998      -2.62110991E-08
  0.397000015      -1.34947147E-08
  0.398000002      -3.59439867E-10
  0.398999989       1.26639730E-08
  0.400000006       2.50462016E-08
  0.400999993       3.62808983E-08
  0.402000010       4.59055798E-08
  0.402999997       5.35209956E-08
  0.404000014       5.88081903E-08
  0.405000001       6.15426003E-08
  0.405999988       6.16042612E-08
  0.407000005       5.89840958E-08
  0.407999992       5.37856408E-08
  0.409000009       4.62220804E-08
  0.409999996       3.66088244E-08
  0.411000013       2.53515910E-08
  0.412000000       1.29307285E-08
  0.412999988      -1.17941282E-10
  0.414000005      -1.32249189E-08
  0.414999992      -2.58104809E-08
  0.416000009      -3.73090714E-08
  0.416999996      -4.71935415E-08
  0.418000013      -5.49981038E-08
  0.419000000      -6.03393033E-08
  0.419999987      -6.29338786E-08
  0.421000004      -6.26127843E-08
  0.421999991      -5.93306417E-08
  0.423000008      -5.31703854E-08
  0.423999995      -4.43424106E-08
  0.425000012      -3.31785834E-08
  0.425999999      -2.01208472E-08
  0.426999986      -5.70509640E-09
  0.428000003       9.45930179E-09
  0.428999990       2.47135379E-08
  0.430000007       3.93759976E-08
  0.430999994       5.27705204E-08
  0.432000011       6.42551612E-08
  0.432999998       7.32501704E-08
  0.433999985       7.92641828E-08
  0.435000002       8.19174844E-08
  0.435999990       8.09610512E-08
  0.437000006       7.62910517E-08
  0.437999994       6.79574867E-08
  0.439000010       5.61669253E-08
  0.439999998       4.12788168E-08
  0.441000015       2.37955788E-08
  0.442000002       4.34652403E-09
  0.442999989      -1.63337557E-08
  0.444000006      -3.74318851E-08
  0.444999993      -5.80860906E-08
  0.446000010      -7.74193509E-08
  0.446999997      -9.45741832E-08
  0.448000014      -1.08747535E-07
  0.449000001      -1.19224438E-07
  0.449999988      -1.25409358E-07
  0.451000005      -1.26853436E-07
  0.451999992      -1.23276834E-07
  0.453000009      -1.14585291E-07
  0.453999996      -1.00879468E-07
  0.455000013      -8.24574968E-08
  0.456000000      -5.98095937E-08
  0.456999987      -3.36053958E-08
  0.458000004      -4.67387107E-09
  0.458999991       2.60230539E-08
  0.460000008       5.74228949E-08
  0.460999995       8.83993394E-08
  0.462000012       1.17802564E-07
  0.463000000       1.44500945E-07
  0.463999987       1.67423565E-07
  0.465000004       1.85601138E-07
  0.465999991       1.98203935E-07
  0.467000008       2.04575883E-07
  0.467999995       2.04262349E-07
  0.469000012       1.97031568E-07
  0.469999999       1.82888115E-07
  0.470999986       1.62078194E-07
  0.472000003       1.35086182E-07
  0.472999990       1.02622415E-07
  0.474000007       6.56028689E-08
  0.474999994       2.51210661E-08
  0.476000011      -1.75869914E-08
  0.476999998      -6.11831155E-08
  0.477999985      -1.04271720E-07
  0.479000002      -1.45446876E-07
  0.479999989      -1.83340703E-07
  0.481000006      -2.16670358E-07
  0.481999993      -2.44283171E-07
  0.483000010      -2.65197144E-07
  0.483999997      -2.78636179E-07
  0.485000014      -2.84057904E-07
  0.486000001      -2.81174209E-07
  0.486999989      -2.69962783E-07
  0.488000005      -2.50669189E-07
  0.488999993      -2.23800498E-07
  0.490000010      -1.90109347E-07
  0.490999997      -1.50569747E-07
  0.492000014      -1.06345240E-07
  0.493000001      -5.87508779E-08
  0.493999988      -9.20985599E-09
  0.495000005       4.07933207E-08
  0.495999992       8.97614640E-08
  0.497000009       1.36233709E-07
  0.497999996       1.78832650E-07
  0.499000013       2.16308692E-07
  0.500000000       2.47579464E-07
  0.500999987       2.71763298E-07
  0.501999974       2.88205655E-07
  0.503000021       2.96497575E-07
  0.504000008       2.96485496E-07
  0.504999995       2.88272901E-07
  0.505999982       2.72212759E-07
  0.507000029       2.48892036E-07
  0.508000016       2.19108870E-07
  0.509000003       1.83842573E-07
  0.509999990       1.44219243E-07
  0.510999978       1.01472168E-07
  0.512000024       5.69002623E-08
  0.513000011       1.18252563E-08
  0.513999999      -3.24508846E-08
  0.514999986      -7.46866249E-08
  0.515999973      -1.13738260E-07
  0.517000020      -1.48592989E-07
  0.518000007      -1.78396590E-07
  0.518999994      -2.02474965E-07
  0.519999981      -2.20348639E-07
  0.521000028      -2.31740927E-07
  0.522000015      -2.36577975E-07
  0.523000002      -2.34983645E-07
  0.523999989      -2.27266213E-07
  0.524999976      -2.13901075E-07
  0.526000023      -1.95507866E-07
  0.527000010      -1.72824045E-07
  0.527999997      -1.46675930E-07
  0.528999984      -1.17948254E-07
  0.529999971      -8.75533601E-08
  0.531000018      -5.64010207E-08
  0.532000005      -2.53704506E-08
  0.532999992       4.71533834E-09
  0.533999979       3.31115722E-08
  0.535000026       5.91695937E-08
  0.536000013       8.23506525E-08
  0.537000000       1.02234601E-07
  0.537999988       1.18524405E-07
  0.538999975       1.31045653E-07
  0.540000021       1.39742411E-07
  0.541000009       1.44669187E-07
  0.541999996       1.45979598E-07
  0.542999983       1.43913027E-07
  0.544000030       1.38779285E-07
  0.545000017       1.30942141E-07
  0.546000004       1.20803108E-07
  0.546999991       1.08785059E-07
  0.547999978       9.53168922E-08
  0.549000025       8.08201435E-08
  0.550000012       6.56968666E-08
  0.550999999       5.03199793E-08
  0.551999986       3.50257388E-08
  0.552999973       2.01086490E-08
  0.554000020       5.81857940E-09
  0.555000007      -7.64022534E-09
  0.555999994      -2.01080788E-08
  0.556999981      -3.14673159E-08
  0.558000028      -4.16389376E-08
  0.559000015      -5.05779347E-08
  0.560000002      -5.82686290E-08
  0.560999990      -6.47195577E-08
  0.561999977      -6.99588725E-08
  0.563000023      -7.40298063E-08
  0.564000010      -7.69869857E-08
  0.564999998      -7.88932510E-08
  0.565999985      -7.98171058E-08
  0.566999972      -7.98310893E-08
  0.568000019      -7.90105190E-08
  0.569000006      -7.74325173E-08
  0.569999993      -7.51756986E-08
  0.570999980      -7.23194589E-08
  0.572000027      -6.89437840E-08
  0.573000014      -6.51281837E-08
  0.574000001      -6.09507040E-08
  0.574999988      -5.64862788E-08
  0.575999975      -5.18049816E-08
  0.577000022      -4.69694754E-08
  0.578000009      -4.20324362E-08
  0.578999996      -3.70338391E-08
  0.579999983      -3.19981623E-08
  0.580999970      -2.69321045E-08
  0.582000017      -2.18228440E-08
  0.583000004      -1.66370651E-08
  0.583999991      -1.13210881E-08
  0.584999979      -5.80230131E-09
  0.586000025       7.95478874E-12
  0.587000012       6.20991569E-09
  0.588000000       1.29097781E-08
  0.588999987       2.02122905E-08
  0.589999974       2.82122929E-08
  0.591000021       3.69856501E-08
  0.592000008       4.65793590E-08
  0.592999995       5.70019054E-08
  0.593999982       6.82139500E-08
  0.595000029       8.01206284E-08
  0.596000016       9.25646617E-08
  0.597000003       1.05322400E-07
  0.597999990       1.18102641E-07
  0.598999977       1.30547775E-07
  0.600000024       1.42239529E-07
  0.601000011       1.52707130E-07
  0.601999998       1.61440070E-07
  0.602999985       1.67903792E-07
  0.603999972       1.71558455E-07
  0.605000019       1.71880458E-07
  0.606000006       1.68385668E-07
  0.606999993       1.60653741E-07
  0.607999980       1.48352740E-07
  0.609000027       1.31262411E-07
  0.610000014       1.09295463E-07
  0.611000001       8.25161663E-08
  0.611999989       5.11537657E-08
  0.612999976       1.56120166E-08
  0.614000022      -2.35284219E-08
  0.615000010      -6.55132482E-08
  0.615999997      -1.09425173E-07
  0.616999984      -1.54201530E-07
  0.617999971      -1.98658697E-07
  0.619000018      -2.41523054E-07
  0.620000005      -2.81467521E-07
  0.620999992      -3.17152995E-07
  0.621999979      -3.47272817E-07
  0.623000026      -3.70599281E-07
  0.624000013      -3.86030877E-07
  0.625000000      -3.92637418E-07
  0.625999987      -3.89701995E-07
  0.626999974      -3.76758464E-07
  0.628000021      -3.53621431E-07
  0.629000008      -3.20408930E-07
  0.629999995      -2.77554818E-07
  0.630999982      -2.25811675E-07
  0.632000029      -1.66241634E-07
  0.633000016      -1.00197532E-07
  0.634000003      -2.92914120E-08
  0.634999990       4.46458550E-08
  0.635999978       1.19615208E-07
  0.637000024       1.93507574E-07
  0.638000011       2.64168136E-07
  0.638999999       3.29464939E-07
  0.639999986       3.87358767E-07
  0.640999973       4.35972566E-07
  0.642000020       4.73657735E-07
  0.643000007       4.99055204E-07
  0.643999994       5.11147391E-07
  0.644999981       5.09301344E-07
  0.646000028       4.93299069E-07
  0.647000015       4.63355633E-07
  0.648000002       4.20121381E-07
  0.648999989       3.64671649E-07
  0.649999976       2.98479193E-07
  0.651000023       2.23375594E-07
  0.652000010       1.41496386E-07
  0.652999997       5.52176260E-08
  0.653999984      -3.29180061E-08
  0.654999971      -1.20282650E-07
  0.656000018      -2.04247556E-07
  0.657000005      -2.82269269E-07
  0.657999992      -3.51973881E-07
  0.658999979      -4.11237124E-07
  0.660000026      -4.58255613E-07
  0.661000013      -4.91608887E-07
  0.662000000      -5.10308496E-07
  0.662999988      -5.13832845E-07
  0.663999975      -5.02145781E-07
  0.665000021      -4.75699579E-07
  0.666000009      -4.35420418E-07
  0.666999996      -3.82677456E-07
  0.667999983      -3.19237273E-07
  0.669000030      -2.47203616E-07
  0.670000017      -1.68946798E-07
  0.671000004      -8.70220447E-08
  0.671999991      -4.08262046E-09
  0.672999978       7.72098190E-08
  0.674000025       1.54276520E-07
  0.675000012       2.24707719E-07
  0.675999999       2.86344175E-07
  0.676999986       3.37348411E-07
  0.677999973       3.76264893E-07
  0.679000020       4.02065666E-07
  0.680000007       4.14180562E-07
  0.680999994       4.12512350E-07
  0.681999981       3.97432729E-07
  0.683000028       3.69763370E-07
  0.684000015       3.30739567E-07
  0.685000002       2.81961974E-07
  0.685999990       2.25332570E-07
  0.686999977       1.62982829E-07
  0.688000023       9.71936629E-08
  0.689000010       3.03112202E-08
  0.689999998      -3.53389602E-08
  0.690999985      -9.75351213E-08
  0.691999972      -1.54238094E-07
  0.693000019      -2.03660946E-07
  0.694000006      -2.44330636E-07
  0.694999993      -2.75134028E-07
  0.695999980      -2.95352208E-07
  0.697000027      -3.04677997E-07
  0.698000014      -3.03218258E-07
  0.699000001      -2.91481541E-07
  0.699999988      -2.70348039E-07
  0.700999975      -2.41029142E-07
  0.702000022      -2.05013009E-07
  0.703000009      -1.64001875E-07
  0.703999996      -1.19841005E-07
  0.704999983      -7.44435553E-08
  0.705999970      -2.97161495E-08
  0.707000017       1.25181518E-08
  0.708000004       5.05880138E-08
  0.708999991       8.30367881E-08
  0.709999979       1.08677234E-07
  0.711000025       1.26633125E-07
  0.712000012       1.36368229E-07
  0.713000000       1.37702273E-07
  0.713999987       1.30812225E-07
  0.714999974       1.16218800E-07
  0.716000021       9.47612122E-08
  0.717000008       6.75587728E-08
  0.717999995       3.59614383E-08
  0.718999982       1.49128421E-09
  0.720000029      -3.42181750E-08
  0.721000016      -6.94917333E-08
  0.722000003      -1.02680396E-07
  0.722999990      -1.32227001E-07
  0.723999977      -1.56729399E-07
  0.725000024      -1.74994611E-07
  0.726000011      -1.86087647E-07
  0.726999998      -1.89367100E-07
  0.727999985      -1.84509958E-07
  0.728999972      -1.71523340E-07
  0.730000019      -1.50745535E-07
  0.731000006      -1.22830599E-07
  0.731999993      -8.87253577E-08
  0.732999980      -4.96304331E-08
  0.734000027      -6.95759272E-09
  0.735000014       3.77262950E-08
  0.736000001       8.27572535E-08
  0.736999989       1.26435310E-07
  0.737999976       1.67088871E-07
  0.739000022       2.03137304E-07
  0.740000010       2.33145855E-07
  0.740999997       2.55880764E-07
  0.741999984       2.70353269E-07
  0.742999971       2.75853552E-07
  0.744000018       2.71977854E-07
  0.745000005       2.58641734E-07
  0.745999992       2.36082712E-07
  0.746999979       2.04852640E-07
  0.748000026       1.65797061E-07
  0.749000013       1.20026584E-07
  0.750000000       6.88790749E-08
  0.750999987       1.38732910E-08
  0.751999974      -4.33415153E-08
  0.753000021      -1.01041380E-07
  0.754000008      -1.57482717E-07
  0.754999995      -2.10959840E-07
  0.755999982      -2.59858638E-07
  0.757000029      -3.02708827E-07
  0.758000016      -3.38226670E-07
  0.759000003      -3.65355362E-07
  0.759999990      -3.83294207E-07
  0.760999978      -3.91522747E-07
  0.762000024      -3.89812641E-07
  0.763000011      -3.78228265E-07
  0.763999999      -3.57125458E-07
  0.764999986      -3.27135240E-07
  0.765999973      -2.89141838E-07
  0.767000020      -2.44253073E-07
  0.768000007      -1.93764308E-07
  0.768999994      -1.39121454E-07
  0.769999981      -8.18722654E-08
  0.771000028      -2.36239259E-08
  0.772000015       3.40004647E-08
  0.773000002       8.94109178E-08
  0.773999989       1.41096365E-07
  0.774999976       1.87658443E-07
  0.776000023       2.27852880E-07
  0.777000010       2.60620084E-07
  0.777999997       2.85107120E-07
  0.778999984       3.00693387E-07
  0.779999971       3.07001159E-07
  0.781000018       3.03901288E-07
  0.782000005       2.91518603E-07
  0.782999992       2.70215224E-07
  0.783999979       2.40593067E-07
  0.785000026       2.03468218E-07
  0.786000013       1.59846536E-07
  0.787000000       1.10904395E-07
  0.787999988       5.79506612E-08
  0.788999975       2.40253906E-09
  0.790000021      -5.42614771E-08
  0.791000009      -1.10529271E-07
  0.791999996      -1.64897543E-07
  0.792999983      -2.15906837E-07
  0.794000030      -2.62180606E-07
  0.795000017      -3.02458716E-07
  0.796000004      -3.35630574E-07
  0.796999991      -3.60762414E-07
  0.797999978      -3.77126696E-07
  0.799000025      -3.84219447E-07
  0.800000012      -3.81777085E-07
  0.800999999      -3.69788722E-07
  0.801999986      -3.48495547E-07
  0.802999973      -3.18396900E-07
  0.804000020      -2.80235298E-07
  0.805000007      -2.34982622E-07
  0.805999994      -1.83822735E-07
  0.806999981      -1.28116341E-07
  0.808000028      -6.93765756E-08
  0.809000015      -9.23039600E-09
  0.810000002       5.06315914E-08
  0.810999990       1.08495485E-07
  0.811999977       1.62666353E-07
  0.813000023       2.11524366E-07
  0.814000010       2.53572466E-07
  0.814999998       2.87475245E-07
  0.815999985       3.12116100E-07
  0.816999972       3.26617766E-07
  0.818000019       3.30389014E-07
  0.819000006       3.23141819E-07
  0.819999993       3.04907587E-07
  0.820999980       2.76047075E-07
  0.822000027       2.37252294E-07
  0.823000014       1.89524656E-07
  0.824000001       1.34154902E-07
  0.824999988       7.26930907E-08
  0.825999975       6.90290536E-09
  0.827000022      -6.12808861E-08
  0.828000009      -1.29822880E-07
  0.828999996      -1.96632769E-07
  0.829999983      -2.59651358E-07
  0.830999970      -3.16897285E-07
  0.832000017      -3.66539268E-07
  0.833000004      -4.06969377E-07
  0.833999991      -4.36847557E-07
  0.834999979      -4.55154094E-07
  0.836000025      -4.61235686E-07
  0.837000012      -4.54824800E-07
  0.838000000      -4.36068262E-07
  0.838999987      -4.05518989E-07
  0.839999974      -3.64136298E-07
  0.841000021      -3.13249473E-07
  0.842000008      -2.54527578E-07
  0.842999995      -1.89928812E-07
  0.843999982      -1.21635210E-07
  0.845000029      -5.19863299E-08
  0.846000016       1.66100094E-08
  0.847000003       8.17438703E-08
  0.847999990       1.41095271E-07
  0.848999977       1.92516382E-07
  0.850000024       2.34109763E-07
  0.851000011       2.64296631E-07
  0.851999998       2.81882365E-07
  0.852999985       2.86093496E-07
  0.853999972       2.76624121E-07
  0.855000019       2.53648921E-07
  0.856000006       2.17826809E-07