   0.00000000       0.00000000    
   1.00000005E-03   0.00000000    
   2.00000009E-03   0.00000000    
   3.00000003E-03   0.00000000    
   4.00000019E-03   0.00000000    
   4.99999989E-03   0.00000000    
   6.00000005E-03   0.00000000    
   7.00000022E-03   0.00000000    
   8.00000038E-03   0.00000000    
   8.99999961E-03   0.00000000    
   9.99999978E-03   0.00000000    
   1.09999999E-02   0.00000000    
   1.20000001E-02   0.00000000    
   1.30000003E-02   0.00000000    
   1.40000004E-02   0.00000000    
   1.49999997E-02   0.00000000    
   1.60000008E-02   0.00000000    
   1.70000009E-02   0.00000000    
   1.79999992E-02   0.00000000    
   1.89999994E-02  -1.29147492E-38
   1.99999996E-02  -7.15127560E-38
   2.09999997E-02  -2.24381157E-37
   2.19999999E-02  -5.91821479E-37
   2.30000000E-02  -1.43366492E-36
   2.40000002E-02  -3.26503421E-36
   2.50000004E-02  -7.09555625E-36
   2.60000005E-02  -1.48020811E-35
   2.70000007E-02  -2.97545257E-35
   2.80000009E-02  -5.77845243E-35
   2.89999992E-02  -1.08644457E-34
   2.99999993E-02  -1.98107601E-34
   3.09999995E-02  -3.50874870E-34
   3.20000015E-02  -6.04409349E-34
   3.29999998E-02  -1.01373356E-33
   3.40000018E-02  -1.65704773E-33
   3.50000001E-02  -2.64174227E-33
   3.59999985E-02  -4.10994702E-33
   3.70000005E-02  -6.24218430E-33
   3.79999988E-02  -9.25695336E-33
   3.90000008E-02  -1.34032187E-32
   3.99999991E-02  -1.89419072E-32
   4.10000011E-02  -2.61117292E-32
   4.19999994E-02  -3.50742682E-32
   4.30000015E-02  -4.58334593E-32
   4.39999998E-02  -5.81259916E-32
   4.50000018E-02  -7.12819598E-32
   4.60000001E-02  -8.40600653E-32
   4.69999984E-02  -9.44689385E-32
   4.80000004E-02  -9.95965095E-32
   4.89999987E-02  -9.54821147E-32
   5.00000007E-02  -7.70813023E-32
   5.09999990E-02  -3.83894767E-32
   5.20000011E-02   2.71942742E-32
   5.29999994E-02   1.26171286E-31
   5.40000014E-02   2.63821628E-31
   5.49999997E-02   4.42576256E-31
   5.60000017E-02   6.59838081E-31
   5.70000000E-02   9.05272744E-31
   5.79999983E-02   1.15769464E-30
   5.90000004E-02   1.38182398E-30
   5.99999987E-02   1.52539341E-30
   6.10000007E-02   1.51733892E-30
   6.19999990E-02   1.26811099E-30
   6.30000010E-02   6.73483925E-31
   6.40000030E-02  -3.76419693E-31
   6.49999976E-02  -1.98085055E-30
   6.59999996E-02  -4.20264057E-30
   6.70000017E-02  -7.03057190E-30
   6.80000037E-02  -1.03277737E-29
   6.89999983E-02  -1.37645596E-29
   7.00000003E-02  -1.67351531E-29
   7.10000023E-02  -1.82593626E-29
   7.19999969E-02  -1.68726178E-29
   7.29999989E-02  -1.05108680E-29
   7.40000010E-02   3.59921700E-30
   7.50000030E-02   2.90295541E-29
   7.59999976E-02   7.01989668E-29
   7.69999996E-02   1.32354167E-28
   7.80000016E-02   2.21451418E-28
   7.90000036E-02   3.43901586E-28
   7.99999982E-02   5.06137567E-28
   8.10000002E-02   7.13962067E-28
   8.20000023E-02   9.71634064E-28
   8.29999968E-02   1.28066156E-27
   8.39999989E-02   1.63827767E-27
   8.50000009E-02   2.03559991E-27
   8.60000029E-02   2.45549924E-27
   8.69999975E-02   2.87024248E-27
   8.79999995E-02   3.23902051E-27
   8.90000015E-02   3.50552915E-27
   9.00000036E-02   3.59583524E-27
   9.09999982E-02   3.41682775E-27
   9.20000002E-02   2.85562717E-27
   9.30000022E-02   1.78038800E-27
   9.39999968E-02   4.29931841E-29
   9.49999988E-02  -2.51583169E-27
   9.60000008E-02  -6.05844520E-27
   9.70000029E-02  -1.07387550E-26
   9.79999974E-02  -1.66867978E-26
   9.89999995E-02  -2.39891738E-26
  0.100000001      -3.26652571E-26
  0.101000004      -4.26394850E-26
  0.101999998      -5.37103158E-26
  0.103000000      -6.55170244E-26
  0.104000002      -7.75059537E-26
  0.104999997      -8.88985412E-26
  0.105999999      -9.86640598E-26
  0.107000001      -1.05500667E-25
  0.108000003      -1.07828879E-25
  0.108999997      -1.03802361E-25
  0.109999999      -9.13408299E-26
  0.111000001      -6.81903446E-26
  0.112000003      -3.20158613E-26
  0.112999998       1.94698483E-26
  0.114000000       8.83377473E-26
  0.115000002       1.76233326E-25
  0.115999997       2.84127483E-25
  0.116999999       4.12031788E-25
  0.118000001       5.58685147E-25
  0.119000003       7.21224267E-25
  0.119999997       8.94853538E-25
  0.120999999       1.07253608E-24
  0.122000001       1.24473169E-24
  0.123000003       1.39921245E-24
  0.123999998       1.52099068E-24
  0.125000000       1.59239669E-24
  0.126000002       1.59334500E-24
  0.127000004       1.50182718E-24
  0.128000006       1.29466570E-24
  0.128999993       9.48556625E-25
  0.129999995       4.41420037E-25
  0.130999997      -2.45939097E-25
  0.131999999      -1.12787132E-24
  0.133000001      -2.21166089E-24
  0.134000003      -3.49510070E-24
  0.135000005      -4.96395339E-24
  0.136000007      -6.58941746E-24
  0.136999995      -8.32574291E-24
  0.137999997      -1.01081836E-23
  0.138999999      -1.18514842E-23
  0.140000001      -1.34491318E-23
  0.141000003      -1.47736151E-23
  0.142000005      -1.56779289E-23
  0.143000007      -1.59985662E-23
  0.143999994      -1.55601930E-23
  0.144999996      -1.41821840E-23
  0.145999998      -1.16870974E-23
  0.147000000      -7.91112709E-24
  0.148000002      -2.71641156E-24
  0.149000004       3.99499357E-24
  0.150000006       1.22658641E-23
  0.150999993       2.20677811E-23
  0.151999995       3.32850235E-23
  0.152999997       4.56992140E-23
  0.153999999       5.89757525E-23
  0.155000001       7.26531364E-23
  0.156000003       8.61364354E-23
  0.157000005       9.86962306E-23
  0.158000007       1.09474317E-22
  0.158999994       1.17497399E-22
  0.159999996       1.21699919E-22
  0.160999998       1.20956901E-22
  0.162000000       1.14127183E-22
  0.163000003       1.00107358E-22
  0.164000005       7.78958808E-23
  0.165000007       4.66663038E-23
  0.165999994       5.84783496E-24
  0.166999996      -4.47891146E-23
  0.167999998      -1.05045810E-22
  0.169000000      -1.74210502E-22
  0.170000002      -2.50980931E-22
  0.171000004      -3.33399301E-22
  0.172000006      -4.18805952E-22
  0.172999993      -5.03817364E-22
  0.173999995      -5.84335198E-22
  0.174999997      -6.55591829E-22
  0.175999999      -7.12238101E-22
  0.177000001      -7.48476982E-22
  0.178000003      -7.58246640E-22
  0.179000005      -7.35453129E-22
  0.180000007      -6.74252315E-22
  0.180999994      -5.69376123E-22
  0.181999996      -4.16497278E-22
  0.182999998      -2.12621617E-22
  0.184000000       4.35044862E-23
  0.185000002       3.50988627E-22
  0.186000004       7.06408255E-22
  0.187000006       1.10346984E-21
  0.187999994       1.53273659E-21
  0.188999996       1.98144855E-21
  0.189999998       2.43346358E-21
  0.191000000       2.86934131E-21
  0.192000002       3.26659642E-21
  0.193000004       3.60013761E-21
  0.194000006       3.84290664E-21
  0.194999993       3.96672807E-21
  0.195999995       3.94336223E-21
  0.196999997       3.74575775E-21
  0.197999999       3.34947564E-21
  0.199000001       2.73425420E-21
  0.200000003       1.88566867E-21
  0.201000005       7.96826861E-22
  0.202000007      -5.29970741E-22
  0.202999994      -2.08168503E-21
  0.203999996      -3.83319656E-21
  0.204999998      -5.74626216E-21
  0.206000000      -7.76887062E-21
  0.207000002      -9.83509186E-21
  0.208000004      -1.18655052E-20
  0.209000006      -1.37682985E-20
  0.209999993      -1.54410839E-20
  0.210999995      -1.67734845E-20
  0.211999997      -1.76505075E-20
  0.213000000      -1.79566662E-20
  0.214000002      -1.75808176E-20
  0.215000004      -1.64216063E-20
  0.216000006      -1.43933869E-20
  0.216999993      -1.14324358E-20
  0.217999995      -7.50323821E-21
  0.218999997      -2.60459061E-21
  0.219999999       3.22477493E-21
  0.221000001       9.90135920E-21
  0.222000003       1.72931865E-20
  0.223000005       2.52175526E-20
  0.224000007       3.34405502E-20
  0.224999994       4.16786616E-20
  0.225999996       4.96026738E-20
  0.226999998       5.68441167E-20
  0.228000000       6.30042858E-20
  0.229000002       6.76659526E-20
  0.230000004       7.04075652E-20
  0.231000006       7.08197855E-20
  0.231999993       6.85240232E-20
  0.232999995       6.31924758E-20
  0.233999997       5.45690016E-20
  0.234999999       4.24902260E-20
  0.236000001       2.69058880E-20
  0.237000003       7.89760222E-21
  0.238000005      -1.43050563E-20
  0.238999993      -3.93121270E-20
  0.239999995      -6.65655374E-20
  0.240999997      -9.53370763E-20
  0.241999999      -1.24732956E-19
  0.243000001      -1.53705590E-19
  0.244000003      -1.81073326E-19
  0.245000005      -2.05548230E-19
  0.246000007      -2.25771943E-19
  0.246999994      -2.40359428E-19
  0.247999996      -2.47949689E-19
  0.248999998      -2.47262509E-19
  0.250000000      -2.37159713E-19
  0.250999987      -2.16709145E-19
  0.252000004      -1.85249063E-19
  0.252999991      -1.42450518E-19
  0.254000008      -8.83750202E-20
  0.254999995      -2.35244512E-20
  0.256000012       5.11196488E-20
  0.256999999       1.34070416E-19
  0.257999986       2.23326358E-19
  0.259000003       3.16380816E-19
  0.259999990       4.10252477E-19
  0.261000007       5.01537907E-19
  0.261999995       5.86487546E-19
  0.263000011       6.61104201E-19
  0.263999999       7.21264116E-19
  0.264999986       7.62857756E-19
  0.266000003       7.81947740E-19
  0.266999990       7.74939814E-19
  0.268000007       7.38761881E-19
  0.268999994       6.71045050E-19
  0.270000011       5.70300035E-19
  0.270999998       4.36081606E-19
  0.272000015       2.69133009E-19
  0.273000002       7.15030367E-20
  0.273999989      -1.53372572E-19
  0.275000006      -4.00632470E-19
  0.275999993      -6.64000212E-19
  0.277000010      -9.35849501E-19
  0.277999997      -1.20732759E-18
  0.279000014      -1.46853975E-18
  0.280000001      -1.70879354E-18
  0.280999988      -1.91690173E-18
  0.282000005      -2.08153859E-18
  0.282999992      -2.19164130E-18
  0.284000009      -2.23684858E-18
  0.284999996      -2.20796178E-18
  0.286000013      -2.09741488E-18
  0.287000000      -1.89973732E-18
  0.287999988      -1.61199004E-18
  0.289000005      -1.23415658E-18
  0.289999992      -7.69469617E-19
  0.291000009      -2.24653466E-19
  0.291999996       3.89935526E-19
  0.293000013       1.06028652E-18
  0.294000000       1.76884323E-18
  0.294999987       2.49475501E-18
  0.296000004       3.21427517E-18
  0.296999991       3.90130678E-18
  0.298000008       4.52809214E-18
  0.298999995       5.06603582E-18
  0.300000012       5.48664434E-18
  0.300999999       5.76255870E-18
  0.301999986       5.86865454E-18
  0.303000003       5.78317411E-18
  0.303999990       5.48885249E-18
  0.305000007       4.97399708E-18
  0.305999994       4.23347481E-18
  0.307000011       3.26956517E-18
  0.307999998       2.09263067E-18
  0.308999985       7.21565261E-19
  0.310000002      -8.16018586E-19
  0.310999990      -2.48389620E-18
  0.312000006      -4.23765496E-18
  0.312999994      -6.02545324E-18
  0.314000010      -7.78911563E-18
  0.314999998      -9.46556258E-18
  0.316000015      -1.09885485E-17
  0.317000002      -1.22906822E-17
  0.317999989      -1.33056774E-17
  0.319000006      -1.39707811E-17
  0.319999993      -1.42293032E-17
  0.321000010      -1.40331671E-17
  0.321999997      -1.33454011E-17
  0.323000014      -1.21424671E-17
  0.324000001      -1.04163273E-17
  0.324999988      -8.17616254E-18
  0.326000005      -5.44963876E-18
  0.326999992      -2.28364508E-18
  0.328000009       1.25557890E-18
  0.328999996       5.08297771E-18
  0.330000013       9.09592203E-18
  0.331000000       1.31761724E-17
  0.331999987       1.71925603E-17
  0.333000004       2.10043607E-17
  0.333999991       2.44652827E-17
  0.335000008       2.74280071E-17
  0.335999995       2.97491570E-17
  0.337000012       3.12945421E-17
  0.338000000       3.19445539E-17
  0.338999987       3.15995137E-17
  0.340000004       3.01847702E-17
  0.340999991       2.76553660E-17
  0.342000008       2.40000896E-17
  0.342999995       1.92446812E-17
  0.344000012       1.34540364E-17
  0.344999999       6.73324605E-18
  0.345999986      -7.72661655E-19
  0.347000003      -8.88037366E-18
  0.347999990      -1.73713901E-17
  0.349000007      -2.59965843E-17
  0.349999994      -3.44821786E-17
  0.351000011      -4.25370384E-17
  0.351999998      -4.98611404E-17
  0.352999985      -5.61550286E-17
  0.354000002      -6.11299641E-17
  0.354999989      -6.45185393E-17
  0.356000006      -6.60853451E-17
  0.356999993      -6.56374169E-17
  0.358000010      -6.30340016E-17
  0.358999997      -5.81953060E-17
  0.360000014      -5.11098125E-17
  0.361000001      -4.18398509E-17
  0.361999989      -3.05250557E-17
  0.363000005      -1.73834454E-17
  0.363999993      -2.70991317E-18
  0.365000010       1.31280081E-17
  0.365999997       2.96971737E-17
  0.367000014       4.65085972E-17
  0.368000001       6.30298458E-17
  0.368999988       7.86998296E-17
  0.370000005       9.29455804E-17
  0.370999992       1.05200731E-16
  0.372000009       1.14925020E-16
  0.372999996       1.21624336E-16
  0.374000013       1.24870616E-16
  0.375000000       1.24320918E-16
  0.375999987       1.19734844E-16
  0.377000004       1.10989857E-16
  0.377999991       9.80934695E-17
  0.379000008       8.11919792E-17
  0.379999995       6.05750384E-17
  0.381000012       3.66755902E-17
  0.381999999       1.00650104E-17
  0.382999986      -1.85568921E-17
  0.384000003      -4.83769004E-17
  0.384999990      -7.84883294E-17
  0.386000007      -1.07915511E-16
  0.386999995      -1.35642294E-16
  0.388000011      -1.60643822E-16
  0.388999999      -1.81920787E-16
  0.389999986      -1.98535060E-16
  0.391000003      -2.09645631E-16
  0.391999990      -2.14543559E-16
  0.393000007      -2.12684785E-16
  0.393999994      -2.03719325E-16
  0.395000011      -1.87515863E-16
  0.395999998      -1.64180317E-16
  0.397000015      -1.34067528E-16
  0.398000002      -9.77851032E-17
  0.398999989      -5.61887710E-17
  0.400000006      -1.03689414E-17
  0.400999993       3.83718267E-17
  0.402000010       8.85500750E-17
  0.402999997       1.38541053E-16
  0.404000014       1.86625763E-16
  0.405000001       2.31044356E-16
  0.405999988       2.70054379E-16
  0.407000005       3.01992313E-16
  0.407999992       3.25336144E-16
  0.409000009       3.38767413E-16
  0.409999996       3.41229870E-16
  0.411000013       3.31983023E-16
  0.412000000       3.10648116E-16
  0.412999988       2.77244524E-16
  0.414000005       2.32214506E-16
  0.414999992       1.76434938E-16
  0.416000009       1.11214619E-16
  0.416999996       3.82762873E-17
  0.418000013      -4.02770056E-17
  0.419000000      -1.22010980E-16
  0.419999987      -2.04223971E-16
  0.421000004      -2.84024361E-16
  0.421999991      -3.58419583E-16
  0.423000008      -4.24414620E-16
  0.423999995      -4.79116987E-16
  0.425000012      -5.19844872E-16
  0.425999999      -5.44235239E-16
  0.426999986      -5.50347640E-16
  0.428000003      -5.36760173E-16
  0.428999990      -5.02653650E-16
  0.430000007      -4.47880053E-16
  0.430999994      -3.73012372E-16
  0.432000011      -2.79372192E-16
  0.432999998      -1.69033167E-16
  0.433999985      -4.47984410E-17
  0.435000002       8.98488081E-17
  0.435999990       2.30821799E-16
  0.437000006       3.73532556E-16
  0.437999994       5.13018634E-16
  0.439000010       6.44090947E-16
  0.439999998       7.61499243E-16
  0.441000015       8.60110818E-16
  0.442000002       9.35096316E-16
  0.442999989       9.82117656E-16
  0.444000006       9.97511315E-16
  0.444999993       9.78459744E-16
  0.446000010       9.23145104E-16
  0.446999997       8.30878758E-16
  0.448000014       7.02200054E-16
  0.449000001       5.38939483E-16
  0.449999988       3.44241125E-16
  0.451000005       1.22542533E-16
  0.451999992      -1.20491866E-16
  0.453000009      -3.78083003E-16
  0.453999996      -6.42494766E-16
  0.455000013      -9.05233852E-16
  0.456000000      -1.15728841E-15
  0.456999987      -1.38939926E-15
  0.458000004      -1.59235587E-15
  0.458999991      -1.75730972E-15
  0.460000008      -1.87609455E-15
  0.460999995      -1.94154393E-15
  0.462000012      -1.94779313E-15
  0.463000000      -1.89055784E-15
  0.463999987      -1.76737427E-15
  0.465000004      -1.57779474E-15
  0.465999991      -1.32352593E-15
  0.467000008      -1.00850453E-15
  0.467999995      -6.38901706E-16
  0.469000012      -2.23054930E-16
  0.469999999       2.28677852E-16
  0.470999986       7.04138595E-16
  0.472000003       1.18966201E-15
  0.472999990       1.67043526E-15
  0.474000007       2.13091530E-15
  0.474999994       2.55529406E-15
  0.476000011       2.92799787E-15
  0.476999998       3.23420663E-15
  0.477999985       3.46037544E-15
  0.479000002       3.59474345E-15
  0.479999989       3.62780950E-15
  0.481000006       3.55276111E-15
  0.481999993       3.36583449E-15
  0.483000010       3.06659491E-15
  0.483999997       2.65812280E-15
  0.485000014       2.14709257E-15
  0.486000001       1.54373957E-15
  0.486999989       8.61708428E-16
  0.488000005       1.17782631E-16
  0.488999993      -6.68500478E-16
  0.490000010      -1.47534314E-15
  0.490999997      -2.27927672E-15
  0.492000014      -3.05583335E-15
  0.493000001      -3.78027882E-15
  0.493999988      -4.42838989E-15
  0.495000005      -4.97724437E-15
  0.495999992      -5.40600821E-15
  0.497000009      -5.69668409E-15
  0.497999996      -5.83480255E-15
  0.499000013      -5.81002430E-15
  0.500000000      -5.61663397E-15
  0.500999987      -5.25390185E-15
  0.501999974      -4.72630027E-15
  0.503000021      -4.04355699E-15
  0.504000008      -3.22053912E-15
  0.504999995      -2.27696708E-15
  0.505999982      -1.23695832E-15
  0.507000029      -1.28411849E-16
  0.508000016       1.01775201E-15
  0.509000003       2.16847804E-15
  0.509999990       3.28956066E-15
  0.510999978       4.34670161E-15
  0.512000024       5.30660085E-15
  0.513000011       6.13805517E-15
  0.513999999       6.81301634E-15
  0.514999986       7.30758193E-15
  0.515999973       7.60287795E-15
  0.517000020       7.68579993E-15
  0.518000007       7.54958602E-15
  0.518999994       7.19419726E-15
  0.519999981       6.62648147E-15
  0.521000028       5.86011317E-15
  0.522000015       4.91530848E-15
  0.523000002       3.81830848E-15
  0.523999989       2.60065203E-15
  0.524999976       1.29825026E-15
  0.526000023      -4.97062425E-17
  0.527000010      -1.40197749E-15
  0.527999997      -2.71660132E-15
  0.528999984      -3.95227394E-15
  0.529999971      -5.06973995E-15
  0.531000018      -6.03313913E-15
  0.532000005      -6.81126721E-15
  0.532999992      -7.37870221E-15
  0.533999979      -7.71675221E-15
  0.535000026      -7.81419065E-15
  0.536000013      -7.66774797E-15
  0.537000000      -7.28233104E-15
  0.537999988      -6.67096637E-15
  0.538999975      -5.85445414E-15
  0.540000021      -4.86074600E-15
  0.541000009      -3.72405659E-15
  0.541999996      -2.48374074E-15
  0.542999983      -1.18296833E-15
  0.544000030       1.32759669E-16
  0.545000017       1.41720132E-15
  0.546000004       2.62501694E-15
  0.546999991       3.71340684E-15
  0.547999978       4.64368110E-15
  0.549000025       5.38270634E-15
  0.550000012       5.90417413E-15
  0.550999999       6.18963524E-15
  0.551999986       6.22926622E-15
  0.552999973       6.02232760E-15
  0.554000020       5.57729522E-15
  0.555000007       4.91165099E-15
  0.555999994       4.05133614E-15
  0.556999981       3.02988090E-15
  0.558000028       1.88723642E-15
  0.559000015       6.68348065E-16
  0.560000002      -5.78480781E-16
  0.560999990      -1.80337783E-15
  0.561999977      -2.95677835E-15
  0.563000023      -3.99131835E-15
  0.564000010      -4.86367462E-15
  0.564999998      -5.53627892E-15
  0.565999985      -5.97884135E-15
  0.566999972      -6.16961646E-15
  0.568000019      -6.09636251E-15
  0.569000006      -5.75695091E-15
  0.569999993      -5.15959617E-15
  0.570999980      -4.32268696E-15
  0.572000027      -3.27422407E-15
  0.573000014      -2.05087429E-15
  0.574000001      -6.96673588E-16
  0.574999988       7.38576678E-16
  0.575999975       2.20116461E-15
  0.577000022       3.63550310E-15
  0.578000009       4.98626951E-15
  0.578999996       6.20057001E-15
  0.579999983       7.23003776E-15
  0.580999970       8.03278190E-15
  0.582000017       8.57511422E-15
  0.583000004       8.83296884E-15
  0.583999991       8.79295924E-15
  0.584999979       8.45302713E-15
  0.586000025       7.82263811E-15
  0.587000012       6.92252160E-15
  0.588000000       5.78394796E-15
  0.588999987       4.44756502E-15
  0.589999974       2.96183895E-15
  0.591000021       1.38114927E-15
  0.592000008      -2.36385640E-16
  0.592999995      -1.83126808E-15
  0.593999982      -3.34507245E-15
  0.595000029      -4.72288800E-15
  0.596000016      -5.91564676E-15
  0.597000003      -6.88224222E-15
  0.597999990      -7.59133797E-15
  0.598999977      -8.02278606E-15
  0.600000024      -8.16858584E-15
  0.601000011      -8.03333247E-15
  0.601999998      -7.63411483E-15
  0.602999985      -6.99986842E-15
  0.603999972      -6.17017805E-15
  0.605000019      -5.19358717E-15
  0.606000006      -4.12545915E-15
  0.606999993      -3.02547611E-15
  0.607999980      -1.95487390E-15
  0.609000027      -9.73527365E-16
  0.610000014      -1.37007817E-16
  0.611000001       5.06256769E-16
  0.611999989       9.17590898E-16
  0.612999976       1.07032333E-15
  0.614000022       9.51570895E-16
  0.615000010       5.63455581E-16
  0.615999997      -7.63238228E-17
  0.616999984      -9.34615625E-16
  0.617999971      -1.96366081E-15
  0.619000018      -3.10265564E-15
  0.620000005      -4.27999311E-15
  0.620999992      -5.41612009E-15
  0.621999979      -6.42690823E-15
  0.623000026      -7.22742551E-15
  0.624000013      -7.73595275E-15
  0.625000000      -7.87809420E-15
  0.625999987      -7.59080180E-15
  0.626999974      -6.82613307E-15
  0.628000021      -5.55457991E-15
  0.629000008      -3.76778763E-15
  0.629999995      -1.48052603E-15
  0.630999982       1.26821479E-15
  0.632000029       4.41509740E-15
  0.633000016       7.87333726E-15
  0.634000003       1.15346499E-14
  0.634999990       1.52722192E-14
  0.635999978       1.89446322E-14
  0.637000024       2.24006435E-14
  0.638000011       2.54846633E-14
  0.638999999       2.80427537E-14
  0.639999986       2.99289232E-14
  0.640999973       3.10114957E-14
  0.642000020       3.11793065E-14
  0.643000007       3.03474287E-14
  0.643999994       2.84622417E-14
  0.644999981       2.55055630E-14
  0.646000028       2.14976352E-14
  0.647000015       1.64988025E-14
  0.648000002       1.06097484E-14
  0.648999989       3.97018784E-15
  0.649999976      -3.24398902E-15
  0.651000023      -1.08251124E-14
  0.652000010      -1.85395658E-14
  0.652999997      -2.61349034E-14
  0.653999984      -3.33480598E-14
  0.654999971      -3.99143710E-14
  0.656000018      -4.55771353E-14
  0.657000005      -5.00973537E-14
  0.657999992      -5.32633155E-14
  0.658999979      -5.48996375E-14
  0.660000026      -5.48754293E-14
  0.661000013      -5.31112155E-14
  0.662000000      -4.95843025E-14
  0.662999988      -4.43323289E-14
  0.663999975      -3.74547974E-14
  0.665000021      -2.91124377E-14
  0.666000009      -1.95242992E-14
  0.666999996      -8.96263942E-15
  0.667999983       2.25435151E-15
  0.669000030       1.37717816E-14
  0.670000017       2.52090066E-14
  0.671000004       3.61719626E-14
  0.671999991       4.62665083E-14
  0.672999978       5.51123004E-14
  0.674000025       6.23567766E-14
  0.675000012       6.76886932E-14
  0.675999999       7.08507553E-14
  0.676999986       7.16508084E-14
  0.677999973       6.99712234E-14
  0.679000020       6.57759573E-14
  0.680000007       5.91150325E-14
  0.680999994       5.01261664E-14
  0.681999981       3.90333551E-14
  0.683000028       2.61424319E-14
  0.684000015       1.18335458E-14
  0.685000002      -3.44919630E-15
  0.685999990      -1.92107055E-14
  0.686999977      -3.49201123E-14
  0.688000023      -5.00277581E-14
  0.689000010      -6.39834187E-14
  0.689999998      -7.62551914E-14
  0.690999985      -8.63483818E-14
  0.691999972      -9.38237525E-14
  0.693000019      -9.83145043E-14
  0.694000006      -9.95412791E-14
  0.694999993      -9.73247362E-14
  0.695999980      -9.15950733E-14
  0.697000027      -8.23981454E-14
  0.698000014      -6.98978500E-14
  0.699000001      -5.43746058E-14
  0.699999988      -3.62198403E-14
  0.700999975      -1.59265877E-14
  0.702000022       5.92360252E-15
  0.703000009       2.86771000E-14
  0.703999996       5.16274950E-14
  0.704999983       7.40372051E-14
  0.705999970       9.51607025E-14
  0.707000017       1.14268648E-13
  0.708000004       1.30672071E-13
  0.708999991       1.43745977E-13
  0.709999979       1.52951247E-13
  0.711000025       1.57854510E-13
  0.712000012       1.58144832E-13
  0.713000000       1.53646965E-13
  0.713999987       1.44330416E-13
  0.714999974       1.30314067E-13
  0.716000021       1.11866069E-13
  0.717000008       8.93989269E-14
  0.717999995       6.34598778E-14
  0.718999982       3.47167499E-14
  0.720000029       3.93969000E-15
  0.721000016      -2.80206529E-14
  0.722000003      -6.02579306E-14
  0.722999990      -9.18370604E-14
  0.723999977      -1.21822528E-13
  0.725000024      -1.49307148E-13
  0.726000011      -1.73440404E-13
  0.726999998      -1.93455278E-13
  0.727999985      -2.08692994E-13
  0.728999972      -2.18624611E-13
  0.730000019      -2.22868802E-13
  0.731000006      -2.21205310E-13
  0.731999993      -2.13583505E-13
  0.732999980      -2.00125818E-13
  0.734000027      -1.81125826E-13
  0.735000014      -1.57041074E-13
  0.736000001      -1.28480817E-13
  0.736999989      -9.61889395E-14
  0.737999976      -6.10228149E-14
  0.739000022      -2.39284233E-14
  0.740000010       1.40872531E-14
  0.740999997       5.19858069E-14
  0.741999984       8.87280429E-14
  0.742999971       1.23304673E-13
  0.744000018       1.54766187E-13
  0.745000005       1.82250875E-13
  0.745999992       2.05010257E-13
  0.746999979       2.22430987E-13
  0.748000026       2.34052767E-13
  0.749000013       2.39581494E-13
  0.750000000       2.38897335E-13
  0.750999987       2.32057727E-13
  0.751999974       2.19294757E-13
  0.753000021       2.01007573E-13
  0.754000008       1.77749606E-13
  0.754999995       1.50211278E-13
  0.755999982       1.19198854E-13
  0.757000029       8.56097758E-14
  0.758000016       5.04055687E-14
  0.759000003       1.45829919E-14
  0.759999990      -2.08555978E-14
  0.760999978      -5.49317909E-14
  0.762000024      -8.67196668E-14
  0.763000011      -1.15372528E-13
  0.763999999      -1.40146887E-13
  0.764999986      -1.60423270E-13
  0.765999973      -1.75722934E-13
  0.767000020      -1.85720268E-13
  0.768000007      -1.90250430E-13
  0.768999994      -1.89312121E-13
  0.769999981      -1.83065368E-13
  0.771000028      -1.71824536E-13
  0.772000015      -1.56046806E-13
  0.773000002      -1.36316427E-13
  0.773999989      -1.13325466E-13
  0.774999976      -8.78514180E-14
  0.776000023      -6.07325672E-14
  0.777000010      -3.28418120E-14
  0.777999997      -5.05970091E-15
  0.778999984       2.17524431E-14
  0.779999971       4.67785397E-14
  0.781000018       6.92721434E-14
  0.782000005       8.85784908E-14
  0.782999992       1.04153597E-13
  0.783999979       1.15579787E-13
  0.785000026       1.22577323E-13
  0.786000013       1.25011790E-13
  0.787000000       1.22896918E-13
  0.787999988       1.16393047E-13
  0.788999975       1.05801015E-13
  0.790000021       9.15518543E-14
  0.791000009       7.41925645E-14
  0.791999996       5.43683886E-14
  0.792999983       3.28021030E-14
  0.794000030       1.02709682E-14
  0.795000017      -1.24179985E-14
  0.796000004      -3.44537055E-14
  0.796999991      -5.50468620E-14
  0.797999978      -7.34552664E-14
  0.799000025      -8.90078077E-14
  0.800000012      -1.01126383E-13
  0.800999999      -1.09345130E-13
  0.801999986      -1.13326381E-13
  0.802999973      -1.12872798E-13
  0.804000020      -1.07935294E-13
  0.805000007      -9.86164750E-14
  0.805999994      -8.51694474E-14
  0.806999981      -6.79918903E-14
  0.808000028      -4.76155980E-14
  0.809000015      -2.46916762E-14
  0.810000002       2.82909004E-17
  0.810999990       2.57144922E-14
  0.811999977       5.14840686E-14
  0.813000023       7.64284469E-14
  0.814000010       9.96420963E-14
  0.814999998       1.20251817E-13
  0.815999985       1.37445773E-13
  0.816999972       1.50501126E-13
  0.818000019       1.58809841E-13
  0.819000006       1.61901335E-13
  0.819999993       1.59461474E-13
  0.820999980       1.51347183E-13
  0.822000027       1.37596016E-13
  0.823000014       1.18430317E-13
  0.824000001       9.42556647E-14
  0.824999988       6.56535305E-14
  0.825999975       3.33680532E-14
  0.827000022      -1.71264673E-15
  0.828000009      -3.85802840E-14
  0.828999996      -7.61347365E-14
  0.829999983      -1.13216118E-13
  0.830999970      -1.48639754E-13
  0.832000017      -1.81232850E-13
  0.833000004      -2.09872037E-13
  0.833999991      -2.33520262E-13
  0.834999979      -2.51262010E-13
  0.836000025      -2.62335726E-13
  0.837000012      -2.66162147E-13
  0.838000000      -2.62367629E-13
  0.838999987      -2.50801387E-13
  0.839999974      -2.31546038E-13
  0.841000021      -2.04921000E-13
  0.842000008      -1.71478175E-13
  0.842999995      -1.31990027E-13
  0.843999982      -8.74301852E-14
  0.845000029      -3.89469205E-14
  0.846000016       1.21695866E-14
  0.847000003       6.45255130E-14
  0.847999990       1.16665900E-13
  0.848999977       1.67120102E-13
  0.850000024       2.14448766E-13
  0.851000011       2.57290744E-13
  0.851999998       2.94408215E-13
  0.852999985       3.24728688E-13
  0.853999972       3.47382117E-13
  0.855000019       3.61731939E-13
  0.856000006       3.67398359E-13