   0.00000000       0.00000000    
   1.00000005E-03   0.00000000    
   2.00000009E-03  -2.36291802E-11
   3.00000003E-03  -1.15509657E-10
   4.00000019E-03  -3.35667133E-10
   4.99999989E-03  -7.51436746E-10
   6.00000005E-03  -1.42753720E-09
   7.00000022E-03  -2.41515985E-09
   8.00000038E-03  -3.74104214E-09
   8.99999961E-03  -5.39754730E-09
   9.99999978E-03  -7.33473593E-09
   1.09999999E-02  -9.45534318E-09
   1.20000001E-02  -1.16134071E-08
   1.30000003E-02  -1.36170257E-08
   1.40000004E-02  -1.52355213E-08
   1.49999997E-02  -1.62109099E-08
   1.60000008E-02  -1.62733436E-08
   1.70000009E-02  -1.51597330E-08
   1.79999992E-02  -1.26346542E-08
   1.89999994E-02  -8.51229487E-09
   1.99999996E-02  -2.67796563E-09
   2.09999997E-02   4.89216712E-09
   2.19999999E-02   1.41148764E-08
   2.30000000E-02   2.47882852E-08
   2.40000002E-02   3.65865418E-08
   2.50000004E-02   4.90612599E-08
   2.60000005E-02   6.16510007E-08
   2.70000007E-02   7.36981178E-08
   2.80000009E-02   8.44737542E-08
   2.89999992E-02   9.32095716E-08
   2.99999993E-02   9.91351428E-08
   3.09999995E-02   1.01520016E-07
   3.20000015E-02   9.97174965E-08
   3.29999998E-02   9.32089605E-08
   3.40000018E-02   8.16456165E-08
   3.50000001E-02   6.48852847E-08
   3.59999985E-02   4.30222649E-08
   3.70000005E-02   1.64076273E-08
   3.79999988E-02  -1.43418699E-08
   3.90000008E-02  -4.83473457E-08
   3.99999991E-02  -8.44850021E-08
   4.10000011E-02  -1.21416946E-07
   4.19999994E-02  -1.57635228E-07
   4.30000015E-02  -1.91518211E-07
   4.39999998E-02  -2.21396562E-07
   4.50000018E-02  -2.45627263E-07
   4.60000001E-02  -2.62671904E-07
   4.69999984E-02  -2.71176361E-07
   4.80000004E-02  -2.70047451E-07
   4.89999987E-02  -2.58522846E-07
   5.00000007E-02  -2.36231301E-07
   5.09999990E-02  -2.03237903E-07
   5.20000011E-02  -1.60073199E-07
   5.29999994E-02  -1.07742601E-07
   5.40000014E-02  -4.77143622E-08
   5.49999997E-02   1.81137239E-08
   5.60000017E-02   8.74697292E-08
   5.70000000E-02   1.57783049E-07
   5.79999983E-02   2.26278075E-07
   5.90000004E-02   2.90082710E-07
   5.99999987E-02   3.46347406E-07
   6.10000007E-02   3.92370282E-07
   6.19999990E-02   4.25722675E-07
   6.30000010E-02   4.44369391E-07
   6.40000030E-02   4.46779012E-07
   6.49999976E-02   4.32016691E-07
   6.59999996E-02   3.99816571E-07
   6.70000017E-02   3.50628483E-07
   6.80000037E-02   2.85635537E-07
   6.89999983E-02   2.06740964E-07
   7.00000003E-02   1.16522841E-07
   7.10000023E-02   1.81571842E-08
   7.19999969E-02  -8.46879402E-08
   7.29999989E-02  -1.87985009E-07
   7.40000010E-02  -2.87501081E-07
   7.50000030E-02  -3.78967485E-07
   7.59999976E-02  -4.58258654E-07
   7.69999996E-02  -5.21572815E-07
   7.80000016E-02  -5.65606058E-07
   7.90000036E-02  -5.87713487E-07
   7.99999982E-02  -5.86048031E-07
   8.10000002E-02  -5.59671207E-07
   8.20000023E-02  -5.08630592E-07
   8.29999968E-02  -4.33997229E-07
   8.39999989E-02  -3.37861849E-07
   8.50000009E-02  -2.23288509E-07
   8.60000029E-02  -9.42239708E-08
   8.69999975E-02   4.46320634E-08
   8.79999995E-02   1.87994218E-07
   8.90000015E-02   3.30188527E-07
   9.00000036E-02   4.65373262E-07
   9.09999982E-02   5.87773854E-07
   9.20000002E-02   6.91924413E-07
   9.30000022E-02   7.72901672E-07
   9.39999968E-02   8.26547591E-07
   9.49999988E-02   8.49664673E-07
   9.60000008E-02   8.40177336E-07
   9.70000029E-02   7.97254302E-07
   9.79999974E-02   7.21380161E-07
   9.89999995E-02   6.14376233E-07
  0.100000001       4.79366008E-07
  0.101000004       3.20686382E-07
  0.101999998       1.43745410E-07
  0.103000000      -4.51675675E-08
  0.104000002      -2.39113092E-07
  0.104999997      -4.30766079E-07
  0.105999999      -6.12702820E-07
  0.107000001      -7.77698915E-07
  0.108000003      -9.19027173E-07
  0.108999997      -1.03074126E-06
  0.109999999      -1.10793439E-06
  0.111000001      -1.14696115E-06
  0.112000003      -1.14561215E-06
  0.112999998      -1.10323435E-06
  0.114000000      -1.02078832E-06
  0.115000002      -9.00841997E-07
  0.115999997      -7.47497381E-07
  0.116999999      -5.66251856E-07
  0.118000001      -3.63801320E-07
  0.119000003      -1.47788001E-07
  0.119999997       7.34943626E-08
  0.120999999       2.91427540E-07
  0.122000001       4.97416238E-07
  0.123000003       6.83240046E-07
  0.123999998       8.41396400E-07
  0.125000000       9.65419986E-07
  0.126000002       1.05016443E-06
  0.127000004       1.09203620E-06
  0.128000006       1.08916413E-06
  0.128999993       1.04150570E-06
  0.129999995       9.50875972E-07
  0.130999997       8.20900482E-07
  0.131999999       6.56894429E-07
  0.133000001       4.65666858E-07
  0.134000003       2.55263302E-07
  0.135000005       3.46503910E-08
  0.136000007      -1.86641444E-07
  0.136999995      -3.98904916E-07
  0.137999997      -5.92655454E-07
  0.138999999      -7.59029433E-07
  0.140000001      -8.90160777E-07
  0.141000003      -9.79525225E-07
  0.142000005      -1.02223305E-06
  0.143000007      -1.01525870E-06
  0.143999994      -9.57599582E-07
  0.144999996      -8.50352365E-07
  0.145999998      -6.96705001E-07
  0.147000000      -5.01843886E-07
  0.148000002      -2.72777896E-07
  0.149000004      -1.80850588E-08
  0.150000006       2.52407574E-07
  0.150999993       5.27998964E-07
  0.151999995       7.97530674E-07
  0.152999997       1.04982632E-06
  0.153999999       1.27413784E-06
  0.155000001       1.46058142E-06
  0.156000003       1.60054253E-06
  0.157000005       1.68703593E-06
  0.158000007       1.71500437E-06
  0.158999994       1.68154372E-06
  0.159999996       1.58604666E-06
  0.160999998       1.43025409E-06
  0.162000000       1.21821620E-06
  0.163000003       9.56161330E-07
  0.164000005       6.52280278E-07
  0.165000007       3.16427190E-07
  0.165999994      -4.02396623E-08
  0.166999996      -4.05676360E-07
  0.167999998      -7.67403606E-07
  0.169000000      -1.11297868E-06
  0.170000002      -1.43046407E-06
  0.171000004      -1.70888245E-06
  0.172000006      -1.93862707E-06
  0.172999993      -2.11182783E-06
  0.173999995      -2.22264134E-06
  0.174999997      -2.26746761E-06
  0.175999999      -2.24507676E-06
  0.177000001      -2.15664454E-06
  0.178000003      -2.00569252E-06
  0.179000005      -1.79794029E-06
  0.180000007      -1.54106920E-06
  0.180999994      -1.24441772E-06
  0.181999996      -9.18610738E-07
  0.182999998      -5.75142622E-07
  0.184000000      -2.25932297E-07
  0.185000002       1.17133837E-07
  0.186000004       4.42650361E-07
  0.187000006       7.40119560E-07
  0.187999994       1.00033344E-06
  0.188999996       1.21569963E-06
  0.189999998       1.38049904E-06
  0.191000000       1.49106324E-06
  0.192000002       1.54586883E-06
  0.193000004       1.54554300E-06
  0.194000006       1.49278367E-06
  0.194999993       1.39219685E-06
  0.195999995       1.25006227E-06
  0.196999997       1.07403457E-06
  0.197999999       8.72796022E-07
  0.199000001       6.55675649E-07
  0.200000003       4.32250289E-07
  0.201000005       2.11944609E-07
  0.202000007       3.64877928E-09
  0.202999994      -1.84632015E-07
  0.203999996      -3.46082771E-07
  0.204999998      -4.75324129E-07
  0.206000000      -5.68594317E-07
  0.207000002      -6.23849303E-07
  0.208000004      -6.40795633E-07
  0.209000006      -6.20841888E-07
  0.209999993      -5.66977064E-07
  0.210999995      -4.83585893E-07
  0.211999997      -3.76207680E-07
  0.213000000      -2.51248736E-07
  0.214000002      -1.15666531E-07
  0.215000004       2.33632811E-08
  0.216000006       1.58780793E-07
  0.216999993       2.83960475E-07
  0.217999995       3.93004143E-07
  0.218999997       4.80991218E-07
  0.219999999       5.44178533E-07
  0.221000001       5.80141830E-07
  0.222000003       5.87850991E-07
  0.223000005       5.67684481E-07
  0.224000007       5.21368804E-07
  0.224999994       4.51867095E-07
  0.225999996       3.63203412E-07
  0.226999998       2.60248129E-07
  0.228000000       1.48462405E-07
  0.229000002       3.36231452E-08
  0.230000004      -7.84609355E-08
  0.231000006      -1.82232355E-07
  0.231999993      -2.72647497E-07
  0.232999995      -3.45413781E-07
  0.233999997      -3.97183015E-07
  0.234999999      -4.25698403E-07
  0.236000001      -4.29891173E-07
  0.237000003      -4.09908466E-07
  0.238000005      -3.67097073E-07
  0.238999993      -3.03916607E-07
  0.239999995      -2.23809749E-07
  0.240999997      -1.31024692E-07
  0.241999999      -3.03993666E-08
  0.243000001       7.28754657E-08
  0.244000003       1.73511367E-07
  0.245000005       2.66374798E-07
  0.246000007       3.46730673E-07
  0.246999994       4.10465191E-07
  0.247999996       4.54272850E-07
  0.248999998       4.75806104E-07
  0.250000000       4.73774776E-07
  0.250999987       4.47993671E-07
  0.252000004       3.99379132E-07
  0.252999991       3.29891463E-07
  0.254000008       2.42427177E-07
  0.254999995       1.40671432E-07
  0.256000012       2.89110957E-08
  0.256999999      -8.81744668E-08
  0.257999986      -2.05740236E-07
  0.259000003      -3.19006176E-07
  0.259999990      -4.23478241E-07
  0.261000007      -5.15155307E-07
  0.261999995      -5.90703053E-07
  0.263000011      -6.47596266E-07
  0.263999999      -6.84215138E-07
  0.264999986      -6.99893803E-07
  0.266000003      -6.94924438E-07
  0.266999990      -6.70505017E-07
  0.268000007      -6.28649616E-07
  0.268999994      -5.72054773E-07
  0.270000011      -5.03932085E-07
  0.270999998      -4.27820424E-07
  0.272000015      -3.47381615E-07
  0.273000002      -2.66197020E-07
  0.273999989      -1.87566144E-07
  0.275000006      -1.14330128E-07
  0.275999993      -4.87270988E-08
  0.277000010       7.72971198E-09
  0.277999997       5.43138192E-08
  0.279000014       9.11163553E-08
  0.280000001       1.19011332E-07
  0.280999988       1.39591947E-07
  0.282000005       1.55047658E-07
  0.282999992       1.68011795E-07
  0.284000009       1.81374361E-07
  0.284999996       1.98080642E-07
  0.286000013       2.20910451E-07
  0.287000000       2.52270610E-07
  0.287999988       2.93996635E-07
  0.289000005       3.47175529E-07
  0.289999992       4.12016846E-07
  0.291000009       4.87755358E-07
  0.291999996       5.72613089E-07
  0.293000013       6.63816991E-07
  0.294000000       7.57667522E-07
  0.294999987       8.49674734E-07
  0.296000004       9.34730963E-07
  0.296999991       1.00734474E-06
  0.298000008       1.06189430E-06
  0.298999995       1.09291682E-06
  0.300000012       1.09540099E-06
  0.300999999       1.06508060E-06
  0.301999986       9.98705900E-07
  0.303000003       8.94286757E-07
  0.303999990       7.51286223E-07
  0.305000007       5.70761301E-07
  0.305999994       3.55434878E-07
  0.307000011       1.09697069E-07
  0.307999998      -1.60465916E-07
  0.308999985      -4.47632658E-07
  0.310000002      -7.43156818E-07
  0.310999990      -1.03746640E-06
  0.312000006      -1.32039668E-06
  0.312999994      -1.58158343E-06
  0.314000010      -1.81086784E-06
  0.314999998      -1.99871988E-06
  0.316000015      -2.13665658E-06
  0.317000002      -2.21762116E-06
  0.317999989      -2.23633128E-06
  0.319000006      -2.18955984E-06
  0.319999993      -2.07634821E-06
  0.321000010      -1.89812545E-06
  0.321999997      -1.65874258E-06
  0.323000014      -1.36440838E-06
  0.324000001      -1.02352624E-06
  0.324999988      -6.46435183E-07
  0.326000005      -2.45076450E-07
  0.326999992       1.67428269E-07
  0.328000009       5.77236563E-07
  0.328999996       9.70308633E-07
  0.330000013       1.33292656E-06
  0.331000000       1.65223241E-06
  0.331999987       1.91672825E-06
  0.333000004       2.11674296E-06
  0.333999991       2.24483097E-06
  0.335000008       2.29609100E-06
  0.335999995       2.26838665E-06
  0.337000012       2.16247349E-06
  0.338000000       1.98200314E-06
  0.338999987       1.73341527E-06
  0.340000004       1.42572480E-06
  0.340999991       1.07020264E-06
  0.342000008       6.79967570E-07
  0.342999995       2.69491693E-07
  0.344000012      -1.45933058E-07
  0.344999999      -5.50783398E-07
  0.345999986      -9.29895634E-07
  0.347000003      -1.26904717E-06
  0.347999990      -1.55551140E-06
  0.349000007      -1.77855338E-06
  0.349999994      -1.92983930E-06
  0.351000011      -2.00377917E-06
  0.351999998      -1.99774286E-06
  0.352999985      -1.91216395E-06
  0.354000002      -1.75052992E-06
  0.354999989      -1.51925462E-06
  0.356000006      -1.22742927E-06
  0.356999993      -8.86476869E-07
  0.358000010      -5.09710048E-07
  0.358999997      -1.11817918E-07
  0.360000014       2.91699223E-07
  0.361000001       6.85125372E-07
  0.361999989       1.05313995E-06
  0.363000005       1.38139740E-06
  0.363999993       1.65707263E-06
  0.365000010       1.86936882E-06
  0.365999997       2.00989757E-06
  0.367000014       2.07301400E-06
  0.368000001       2.05601600E-06
  0.368999988       1.95923303E-06
  0.370000005       1.78600999E-06
  0.370999992       1.54257054E-06
  0.372000009       1.23775942E-06
  0.372999996       8.82712982E-07
  0.374000013       4.90417904E-07
  0.375000000       7.52291527E-08
  0.375999987      -3.47680668E-07
  0.377000004      -7.62880063E-07
  0.377999991      -1.15525120E-06
  0.379000008      -1.51054201E-06
  0.379999995      -1.81587927E-06
  0.381000012      -2.06021900E-06
  0.381999999      -2.23473967E-06
  0.382999986      -2.33312471E-06
  0.384000003      -2.35177663E-06
  0.384999990      -2.28989734E-06
  0.386000007      -2.14950364E-06
  0.386999995      -1.93530968E-06
  0.388000011      -1.65453230E-06
  0.388999999      -1.31661079E-06
  0.389999986      -9.32845637E-07
  0.391000003      -5.15981526E-07
  0.391999990      -7.97775428E-08
  0.393000007       3.61509478E-07
  0.393999994       7.93570109E-07
  0.395000011       1.20253833E-06
  0.395999998       1.57543343E-06
  0.397000015       1.90055198E-06
  0.398000002       2.16783747E-06
  0.398999989       2.36914002E-06
  0.400000006       2.49845266E-06
  0.400999993       2.55204372E-06
  0.402000010       2.52851805E-06
  0.402999997       2.42881333E-06
  0.404000014       2.25610620E-06
  0.405000001       2.01568014E-06
  0.405999988       1.71471254E-06
  0.407000005       1.36202596E-06
  0.407999992       9.67804908E-07
  0.409000009       5.43270801E-07
  0.409999996       1.00360253E-07
  0.411000013      -3.48616027E-07
  0.412000000      -7.91310470E-07
  0.412999988      -1.21564881E-06
  0.414000005      -1.61014771E-06
  0.414999992      -1.96418409E-06
  0.416000009      -2.26825091E-06
  0.416999996      -2.51415872E-06
  0.418000013      -2.69522980E-06
  0.419000000      -2.80642689E-06
  0.419999987      -2.84447970E-06
  0.421000004      -2.80792347E-06
  0.421999991      -2.69716702E-06
  0.423000008      -2.51444499E-06
  0.423999995      -2.26380621E-06
  0.425000012      -1.95103871E-06
  0.425999999      -1.58354646E-06
  0.426999986      -1.17022512E-06
  0.428000003      -7.21268179E-07
  0.428999990      -2.47979898E-07
  0.430000007       2.37475973E-07
  0.430999994       7.22325410E-07
  0.432000011       1.19349102E-06
  0.432999998       1.63789207E-06
  0.433999985       2.04276239E-06
  0.435000002       2.39602946E-06
  0.435999990       2.68661984E-06
  0.437000006       2.90480966E-06
  0.437999994       3.04258128E-06
  0.439000010       3.09389929E-06
  0.439999998       3.05497520E-06
  0.441000015       2.92451000E-06
  0.442000002       2.70384794E-06
  0.442999989       2.39707538E-06
  0.444000006       2.01104149E-06
  0.444999993       1.55527937E-06
  0.446000010       1.04185665E-06
  0.446999997       4.85141015E-07
  0.448000014      -9.85736364E-08
  0.449000001      -6.91466596E-07
  0.449999988      -1.27470844E-06
  0.451000005      -1.82903852E-06
  0.451999992      -2.33537980E-06
  0.453000009      -2.77548315E-06
  0.453999996      -3.13261216E-06
  0.455000013      -3.39218172E-06
  0.456000000      -3.54237272E-06
  0.456999987      -3.57464774E-06
  0.458000004      -3.48426374E-06
  0.458999991      -3.27056773E-06
  0.460000008      -2.93722042E-06
  0.460999995      -2.49227492E-06
  0.462000012      -1.94806398E-06
  0.463000000      -1.32094829E-06
  0.463999987      -6.30908971E-07
  0.465000004       9.90431630E-08
  0.465999991       8.43589078E-07
  0.467000008       1.57593752E-06
  0.467999995       2.26874499E-06
  0.469000012       2.89513878E-06
  0.469999999       3.42970475E-06
  0.470999986       3.84953637E-06
  0.472000003       4.13519183E-06
  0.472999990       4.27151963E-06
  0.474000007       4.24847622E-06
  0.474999994       4.06163372E-06
  0.476000011       3.71259421E-06
  0.476999998       3.20915433E-06
  0.477999985       2.56520752E-06
  0.479000002       1.80049767E-06
  0.479999989       9.39978349E-07
  0.481000006       1.31507818E-08
  0.481999993      -9.47007834E-07
  0.483000010      -1.90512719E-06
  0.483999997      -2.82476458E-06
  0.485000014      -3.66975542E-06
  0.486000001      -4.40560234E-06
  0.486999989      -5.00093074E-06
  0.488000005      -5.42870612E-06
  0.488999993      -5.66751396E-06
  0.490000010      -5.70249767E-06
  0.490999997      -5.52618076E-06
  0.492000014      -5.13900204E-06
  0.493000001      -4.54944984E-06
  0.493999988      -3.77407196E-06
  0.495000005      -2.83703821E-06
  0.495999992      -1.76938363E-06
  0.497000009      -6.08053142E-07
  0.497999996       6.05405887E-07
  0.499000013       1.82632778E-06
  0.500000000       3.00856573E-06
  0.500999987       4.10628309E-06
  0.501999974       5.07572395E-06
  0.503000021       5.87697332E-06
  0.504000008       6.47565730E-06
  0.504999995       6.84435145E-06
  0.505999982       6.96389952E-06
  0.507000029       6.82430073E-06
  0.508000016       6.42536907E-06
  0.509000003       5.77697892E-06
  0.509999990       4.89885679E-06
  0.510999978       3.82008102E-06
  0.512000024       2.57815168E-06
  0.513000011       1.21768630E-06
  0.513999999      -2.11163680E-07
  0.514999986      -1.65454185E-06
  0.515999973      -3.05694334E-06
  0.517000020      -4.36337177E-06
  0.518000007      -5.52145593E-06
  0.518999994      -6.48359946E-06
  0.519999981      -7.20895241E-06
  0.521000028      -7.66512949E-06
  0.522000015      -7.82964071E-06
  0.523000002      -7.69096550E-06
  0.523999989      -7.24924530E-06
  0.524999976      -6.51645814E-06
  0.526000023      -5.51613584E-06
  0.527000010      -4.28269232E-06
  0.527999997      -2.86026830E-06
  0.528999984      -1.30108288E-06
  0.529999971       3.36374995E-07
  0.531000018       1.98962925E-06
  0.532000005       3.59457658E-06
  0.532999992       5.08799985E-06
  0.533999979       6.41000543E-06
  0.535000026       7.50656864E-06
  0.536000013       8.33153808E-06
  0.537000000       8.84878500E-06
  0.537999988       9.03361524E-06
  0.538999975       8.87398164E-06
  0.540000021       8.37108564E-06
  0.541000009       7.53954873E-06
  0.541999996       6.40697499E-06
  0.542999983       5.01307977E-06
  0.544000030       3.40818747E-06
  0.545000017       1.65151175E-06
  0.546000004      -1.91162897E-07
  0.546999991      -2.04995467E-06
  0.547999978      -3.85360954E-06
  0.549000025      -5.53227756E-06
  0.550000012      -7.02020498E-06
  0.550999999      -8.25847201E-06
  0.551999986      -9.19731247E-06
  0.552999973      -9.79814195E-06
  0.554000020      -1.00352108E-05
  0.555000007      -9.89666933E-06
  0.555999994      -9.38522498E-06
  0.556999981      -8.51805453E-06
  0.558000028      -7.32630315E-06
  0.559000015      -5.85388170E-06
  0.560000002      -4.15592876E-06
  0.560999990      -2.29659190E-06
  0.561999977      -3.46602349E-07
  0.563000023       1.61953676E-06
  0.564000010       3.52628058E-06
  0.564999998       5.30037642E-06
  0.565999985       6.87340162E-06
  0.566999972       8.18479566E-06
  0.568000019       9.18403384E-06
  0.569000006       9.83291102E-06
  0.569999993       1.01068581E-05
  0.570999980       9.99614076E-06
  0.572000027       9.50620415E-06
  0.573000014       8.65747552E-06
  0.574000001       7.48462435E-06
  0.574999988       6.03517037E-06
  0.575999975       4.36762411E-06
  0.577000022       2.54912811E-06
  0.578000009       6.52757024E-07
  0.578999996      -1.24535313E-06
  0.579999983      -3.06905326E-06
  0.580999970      -4.74527269E-06
  0.582000017      -6.20707897E-06
  0.583000004      -7.39619236E-06
  0.583999991      -8.26538690E-06
  0.584999979      -8.78054470E-06
  0.586000025      -8.92180196E-06
  0.587000012      -8.68457937E-06
  0.588000000      -8.07955166E-06
  0.588999987      -7.13239524E-06
  0.589999974      -5.88257808E-06
  0.591000021      -4.38191546E-06
  0.592000008      -2.69231487E-06
  0.592999995      -8.83321093E-07
  0.593999982       9.70820338E-07
  0.595000029       2.79399774E-06
  0.596000016       4.51160395E-06
  0.597000003       6.05333844E-06
  0.597999990       7.35616550E-06
  0.598999977       8.36701292E-06
  0.600000024       9.04470835E-06
  0.601000011       9.36181732E-06
  0.601999998       9.30566694E-06
  0.602999985       8.87890656E-06
  0.603999972       8.09930043E-06
  0.605000019       6.99908469E-06
  0.606000006       5.62350488E-06
  0.606999993       4.02905562E-06
  0.607999980       2.28107820E-06
  0.609000027       4.51119547E-07
  0.610000014      -1.38603912E-06
  0.611000001      -3.15553439E-06
  0.611999989      -4.78530319E-06
  0.612999976      -6.20919536E-06
  0.614000022      -7.36955462E-06
  0.615000010      -8.21969115E-06
  0.615999997      -8.72563851E-06
  0.616999984      -8.86758608E-06
  0.617999971      -8.64057438E-06
  0.619000018      -8.05470245E-06
  0.620000005      -7.13469854E-06
  0.620999992      -5.91885146E-06
  0.621999979      -4.45717797E-06
  0.623000026      -2.80963900E-06
  0.624000013      -1.04343906E-06
  0.625000000       7.69715655E-07
  0.625999987       2.55665941E-06
  0.626999974       4.24570953E-06
  0.628000021       5.76957200E-06
  0.629000008       7.06810306E-06
  0.629999995       8.09088760E-06
  0.630999982       8.79909112E-06
  0.632000029       9.16709268E-06
  0.633000016       9.18338628E-06
  0.634000003       8.85111604E-06
  0.634999990       8.18764875E-06
  0.635999978       7.22401728E-06
  0.637000024       6.00324711E-06
  0.638000011       4.57878605E-06
  0.638999999       3.01194541E-06
  0.639999986       1.36954225E-06
  0.640999973      -2.79034367E-07
  0.642000020      -1.86469060E-06
  0.643000007      -3.32151717E-06
  0.643999994      -4.58953764E-06
  0.644999981      -5.61709794E-06
  0.646000028      -6.36303275E-06
  0.647000015      -6.79812183E-06
  0.648000002      -6.90654952E-06
  0.648999989      -6.68615166E-06
  0.649999976      -6.14837654E-06
  0.651000023      -5.31809519E-06
  0.652000010      -4.23196707E-06
  0.652999997      -2.93708604E-06
  0.653999984      -1.48902814E-06
  0.654999971       5.09187501E-08
  0.656000018       1.61810476E-06
  0.657000005       3.14703902E-06
  0.657999992       4.57482020E-06
  0.658999979       5.84301097E-06
  0.660000026       6.90036723E-06
  0.661000013       7.70513179E-06
  0.662000000       8.22619859E-06
  0.662999988       8.44472379E-06
  0.663999975       8.35474111E-06
  0.665000021       7.96296445E-06
  0.666000009       7.28885925E-06
  0.666999996       6.36334244E-06
  0.667999983       5.22752498E-06
  0.669000030       3.93076425E-06
  0.670000017       2.52862515E-06
  0.671000004       1.08044219E-06
  0.671999991      -3.53223442E-07
  0.672999978      -1.71314844E-06
  0.674000025      -2.94397660E-06
  0.675000012      -3.99648616E-06
  0.675999999      -4.82930636E-06
  0.676999986      -5.41109557E-06
  0.677999973      -5.72126737E-06
  0.679000020      -5.75091099E-06
  0.680000007      -5.50292498E-06
  0.680999994      -4.99192038E-06
  0.681999981      -4.24303289E-06
  0.683000028      -3.29126874E-06
  0.684000015      -2.17927504E-06
  0.685000002      -9.55739097E-07
  0.685999990       3.26670317E-07
  0.686999977       1.61402193E-06
  0.688000023       2.85309534E-06
  0.689000010       3.99374858E-06
  0.689999998       4.99104544E-06
  0.690999985       5.80735787E-06
  0.691999972       6.41327051E-06
  0.693000019       6.78925153E-06
  0.694000006       6.92610638E-06
  0.694999993       6.82518294E-06
  0.695999980       6.49813774E-06
  0.697000027       5.96655309E-06
  0.698000014       5.26021904E-06
  0.699000001       4.41614520E-06
  0.699999988       3.47658761E-06
  0.700999975       2.48729225E-06
  0.702000022       1.49518758E-06
  0.703000009       5.46337503E-07
  0.703999996      -3.16095310E-07
  0.704999983      -1.05357663E-06
  0.705999970      -1.63412346E-06
  0.707000017      -2.03328909E-06
  0.708000004      -2.23564371E-06
  0.708999991      -2.23457982E-06
  0.709999979      -2.03354057E-06
  0.711000025      -1.64450626E-06
  0.712000012      -1.08833910E-06
  0.713000000      -3.92853138E-07
  0.713999987       4.07768766E-07
  0.714999974       1.27510941E-06
  0.716000021       2.16841249E-06
  0.717000008       3.04609057E-06
  0.717999995       3.86780630E-06
  0.718999982       4.59646435E-06
  0.720000029       5.19965306E-06
  0.721000016       5.65122991E-06
  0.722000003       5.93236427E-06
  0.722999990       6.03247508E-06
  0.723999977       5.94947369E-06
  0.725000024       5.68970336E-06
  0.726000011       5.26789381E-06
  0.726999998       4.70597206E-06
  0.727999985       4.03253125E-06
  0.728999972       3.28058127E-06
  0.730000019       2.48700940E-06
  0.731000006       1.69014061E-06
  0.731999993       9.28131271E-07
  0.732999980       2.37328123E-07
  0.734000027      -3.49796892E-07
  0.735000014      -8.05599996E-07
  0.736000001      -1.10886879E-06
  0.736999989      -1.24561882E-06
  0.737999976      -1.20996879E-06
  0.739000022      -1.00392811E-06
  0.740000010      -6.37643780E-07
  0.740999997      -1.28618751E-07
  0.741999984       4.98809356E-07
  0.742999971       1.21506253E-06
  0.744000018       1.98617499E-06
  0.745000005       2.77604067E-06
  0.745999992       3.54771259E-06
  0.746999979       4.26499400E-06
  0.748000026       4.89458444E-06
  0.749000013       5.40732799E-06
  0.750000000       5.77954688E-06
  0.750999987       5.99427176E-06
  0.751999974       6.04207798E-06
  0.753000021       5.92144988E-06
  0.754000008       5.63867525E-06
  0.754999995       5.20799676E-06
  0.755999982       4.65050334E-06
  0.757000029       3.99360624E-06
  0.758000016       3.26946883E-06
  0.759000003       2.51349388E-06
  0.759999990       1.76306560E-06
  0.760999978       1.05548122E-06
  0.762000024       4.26134392E-07
  0.763000011      -9.24687527E-08
  0.763999999      -4.73137504E-07
  0.764999986      -6.94368737E-07
  0.765999973      -7.42253121E-07
  0.767000020      -6.10140660E-07
  0.768000007      -3.00040625E-07
  0.768999994       1.78065633E-07
  0.769999981       8.06656260E-07
  0.771000028       1.56106250E-06
  0.772000015       2.41099701E-06
  0.773000002       3.32119384E-06
  0.773999989       4.25379676E-06
  0.774999976       5.16942191E-06
  0.776000023       6.02910632E-06
  0.777000010       6.79610002E-06
  0.777999997       7.43736564E-06
  0.778999984       7.92527862E-06
  0.779999971       8.23853134E-06
  0.781000018       8.36346226E-06
  0.782000005       8.29435339E-06
  0.782999992       8.03390594E-06
  0.783999979       7.59321892E-06
  0.785000026       6.99087514E-06
  0.786000013       6.25290932E-06
  0.787000000       5.41050304E-06
  0.787999988       4.50013749E-06
  0.788999975       3.56035002E-06
  0.790000021       2.63134075E-06
  0.791000009       1.75273749E-06
  0.791999996       9.61496880E-07
  0.792999983       2.91012498E-07
  0.794000030      -2.30706249E-07
  0.795000017      -5.82578139E-07
  0.796000004      -7.50778156E-07
  0.796999991      -7.29884391E-07
  0.797999978      -5.22290634E-07
  0.799000025      -1.38871883E-07
  0.800000012       4.01834370E-07
  0.800999999       1.07465314E-06
  0.801999986       1.84868441E-06
  0.802999973       2.68855638E-06
  0.804000020       3.55668453E-06
  0.805000007       4.41437214E-06
  0.805999994       5.22359369E-06
  0.806999981       5.94875019E-06
  0.808000028       6.55877193E-06
  0.809000015       7.02738453E-06
  0.810000002       7.33555953E-06
  0.810999990       7.47120930E-06
  0.811999977       7.43096871E-06
  0.813000023       7.21890956E-06
  0.814000010       6.84716269E-06
  0.814999998       6.33572517E-06
  0.815999985       5.71039709E-06
  0.816999972       5.00283431E-06
  0.818000019       4.24805330E-06
  0.819000006       3.48370941E-06
  0.819999993       2.74771878E-06
  0.820999980       2.07682501E-06
  0.822000027       1.50516883E-06
  0.823000014       1.06214372E-06
  0.824000001       7.71318753E-07
  0.824999988       6.49790650E-07
  0.825999975       7.06590640E-07
  0.827000022       9.42899987E-07
  0.828000009       1.35095934E-06
  0.828999996       1.91605932E-06
  0.829999983       2.61551577E-06
  0.830999970       3.42072508E-06
  0.832000017       4.29717829E-06
  0.833000004       5.20762524E-06
  0.833999991       6.11241239E-06
  0.834999979       6.97124051E-06
  0.836000025       7.74633463E-06
  0.837000012       8.40225948E-06
  0.838000000       8.90853153E-06
  0.838999987       9.24084088E-06
  0.839999974       9.38242556E-06
  0.841000021       9.32419425E-06
  0.842000008       9.06486548E-06
  0.842999995       8.61304670E-06
  0.843999982       7.98468773E-06
  0.845000029       7.20320941E-06
  0.846000016       6.29903434E-06
  0.847000003       5.30766556E-06
  0.847999990       4.26870611E-06
  0.848999977       3.22349069E-06
  0.850000024       2.21401888E-06
  0.851000011       1.28115312E-06
  0.851999998       4.62531261E-07
  0.852999985      -2.09687499E-07
  0.853999972      -7.08171910E-07
  0.855000019      -1.01348746E-06
  0.856000006      -1.11424060E-06