   0.00000000       0.00000000    
   1.00000005E-03   0.00000000    
   2.00000009E-03   0.00000000    
   3.00000003E-03   0.00000000    
   4.00000019E-03   0.00000000    
   4.99999989E-03   0.00000000    
   6.00000005E-03   0.00000000    
   7.00000022E-03   0.00000000    
   8.00000038E-03   0.00000000    
   8.99999961E-03   0.00000000    
   9.99999978E-03   0.00000000    
   1.09999999E-02  -4.64307775E-38
   1.20000001E-02  -9.25774355E-37
   1.30000003E-02  -6.74426252E-36
   1.40000004E-02  -3.57687204E-35
   1.49999997E-02  -1.53055563E-34
   1.60000008E-02  -5.63673602E-34
   1.70000009E-02  -1.85943774E-33
   1.79999992E-02  -5.63505323E-33
   1.89999994E-02  -1.58800603E-32
   1.99999996E-02  -4.19441070E-32
   2.09999997E-02  -1.04537641E-31
   2.19999999E-02  -2.47261052E-31
   2.30000000E-02  -5.57762007E-31
   2.40000002E-02  -1.20492854E-30
   2.50000004E-02  -2.50169667E-30
   2.60000005E-02  -5.00713574E-30
   2.70000007E-02  -9.68636610E-30
   2.80000009E-02  -1.81521816E-29
   2.89999992E-02  -3.30171710E-29
   2.99999993E-02  -5.83882315E-29
   3.09999995E-02  -1.00534494E-28
   3.20000015E-02  -1.68751715E-28
   3.29999998E-02  -2.76426895E-28
   3.40000018E-02  -4.42271178E-28
   3.50000001E-02  -6.91631343E-28
   3.59999985E-02  -1.05770281E-27
   3.70000005E-02  -1.58234597E-27
   3.79999988E-02  -2.31604554E-27
   3.90000008E-02  -3.31634929E-27
   3.99999991E-02  -4.64388279E-27
   4.10000011E-02  -6.35476147E-27
   4.19999994E-02  -8.48794458E-27
   4.30000015E-02  -1.10458091E-26
   4.39999998E-02  -1.39660351E-26
   4.50000018E-02  -1.70828045E-26
   4.60000001E-02  -2.00754685E-26
   4.69999984E-02  -2.24032368E-26
   4.80000004E-02  -2.32252545E-26
   4.89999987E-02  -2.13067432E-26
   5.00000007E-02  -1.49138006E-26
   5.09999990E-02  -1.70199745E-27
   5.20000011E-02   2.13927661E-26
   5.29999994E-02   5.82486079E-26
   5.40000014E-02   1.13620031E-25
   5.49999997E-02   1.93145937E-25
   5.60000017E-02   3.03275701E-25
   5.70000000E-02   4.51080329E-25
   5.79999983E-02   6.43912053E-25
   5.90000004E-02   8.88871803E-25
   5.99999987E-02   1.19204554E-24
   6.10000007E-02   1.55747195E-24
   6.19999990E-02   1.98581238E-24
   6.30000010E-02   2.47270561E-24
   6.40000030E-02   3.00681335E-24
   6.49999976E-02   3.56758361E-24
   6.59999996E-02   4.12279693E-24
   6.70000017E-02   4.62600302E-24
   6.80000037E-02   5.01400110E-24
   6.89999983E-02   5.20457530E-24
   7.00000003E-02   5.09474772E-24
   7.10000023E-02   4.55987715E-24
   7.19999969E-02   3.45397620E-24
   7.29999989E-02   1.61166935E-24
   7.40000010E-02  -1.14776787E-24
   7.50000030E-02  -5.01383820E-24
   7.59999976E-02  -1.01752951E-23
   7.69999996E-02  -1.68073143E-23
   7.80000016E-02  -2.50551027E-23
   7.90000036E-02  -3.50138690E-23
   7.99999982E-02  -4.67052704E-23
   8.10000002E-02  -6.00507490E-23
   8.20000023E-02  -7.48424337E-23
   8.29999968E-02  -9.07127185E-23
   8.39999989E-02  -1.07103973E-22
   8.50000009E-02  -1.23240256E-22
   8.60000029E-02  -1.38103367E-22
   8.69999975E-02  -1.50415895E-22
   8.79999995E-02  -1.58634273E-22
   8.90000015E-02  -1.60955077E-22
   9.00000036E-02  -1.55337832E-22
   9.09999982E-02  -1.39547664E-22
   9.20000002E-02  -1.11220742E-22
   9.30000022E-02  -6.79548450E-23
   9.39999968E-02  -7.42687930E-24
   9.49999988E-02   7.24620743E-23
   9.60000008E-02   1.73414927E-22
   9.70000029E-02   2.96542154E-22
   9.79999974E-02   4.42144900E-22
   9.89999995E-02   6.09483881E-22
  0.100000001       7.96541810E-22
  0.101000004       9.99790548E-22
  0.101999998       1.21397439E-21
  0.103000000       1.43192477E-21
  0.104000002       1.64442193E-21
  0.104999997       1.84012063E-21
  0.105999999       2.00555776E-21
  0.107000001       2.12526004E-21
  0.108000003       2.18196715E-21
  0.108999997       2.15698634E-21
  0.109999999       2.03069104E-21
  0.111000001       1.78317118E-21
  0.112000003       1.39503980E-21
  0.112999998       8.48393272E-22
  0.114000000       1.27918125E-22
  0.115000002      -7.77871732E-22
  0.115999997      -1.87529155E-21
  0.116999999      -3.16406662E-21
  0.118000001      -4.63587760E-21
  0.119000003      -6.27292094E-21
  0.119999997      -8.04654158E-21
  0.120999999      -9.91600208E-21
  0.122000001      -1.18274630E-20
  0.123000003      -1.37132538E-20
  0.123999998      -1.54915193E-20
  0.125000000      -1.70663274E-20
  0.126000002      -1.83283449E-20
  0.127000004      -1.91561475E-20
  0.128000006      -1.94182798E-20
  0.128999993      -1.89761259E-20
  0.129999995      -1.76876822E-20
  0.130999997      -1.54122861E-20
  0.131999999      -1.20163437E-20
  0.133000001      -7.38006827E-21
  0.134000003      -1.40521022E-21
  0.135000005       5.97626805E-21
  0.136000007       1.47926938E-20
  0.136999995       2.50225205E-20
  0.137999997       3.65837525E-20
  0.138999999       4.93232548E-20
  0.140000001       6.30063860E-20
  0.141000003       7.73074082E-20
  0.142000005       9.18013316E-20
  0.143000007       1.05957856E-19
  0.143999994       1.19138203E-19
  0.144999996       1.30595740E-19
  0.145999998       1.39481315E-19
  0.147000000       1.44854266E-19
  0.148000002       1.45700084E-19
  0.149000004       1.40955596E-19
  0.150000006       1.29542455E-19
  0.150999993       1.10409496E-19
  0.151999995       8.25842648E-20
  0.152999997       4.52336189E-20
  0.153999999      -2.26719220E-21
  0.155000001      -6.02580397E-20
  0.156000003      -1.28711824E-19
  0.157000005      -2.07149277E-19
  0.158000007      -2.94554001E-19
  0.158999994      -3.89291721E-19
  0.159999996      -4.89038898E-19
  0.160999998      -5.90726020E-19
  0.162000000      -6.90502096E-19
  0.163000003      -7.83727109E-19
  0.164000005      -8.64999258E-19
  0.165000007      -9.28223723E-19
  0.165999994      -9.66729911E-19
  0.166999996      -9.73441965E-19
  0.167999998      -9.41107268E-19
  0.169000000      -8.62584718E-19
  0.170000002      -7.31192610E-19
  0.171000004      -5.41112916E-19
  0.172000006      -2.87845050E-19
  0.172999993       3.13018068E-20
  0.173999995       4.16692854E-19
  0.174999997       8.65847636E-19
  0.175999999       1.37294011E-18
  0.177000001       1.92834723E-18
  0.178000003       2.51827734E-18
  0.179000005       3.12451305E-18
  0.180000007       3.72430543E-18
  0.180999994       4.29045721E-18
  0.181999996       4.79162775E-18
  0.182999998       5.19289265E-18
  0.184000000       5.45658542E-18
  0.185000002       5.54343566E-18
  0.186000004       5.41401291E-18
  0.187000006       5.03046870E-18
  0.187999994       4.35855403E-18
  0.188999996       3.36987488E-18
  0.189999998       2.04432415E-18
  0.191000000       3.72613123E-19
  0.192000002      -1.64119572E-18
  0.193000004      -3.97727298E-18
  0.194000006      -6.59785809E-18
  0.194999993      -9.44549270E-18
  0.195999995      -1.24418122E-17
  0.196999997      -1.54870511E-17
  0.197999999      -1.84604263E-17
  0.199000001      -2.12215287E-17
  0.200000003      -2.36128715E-17
  0.201000005      -2.54636616E-17
  0.202000007      -2.65948708E-17
  0.202999994      -2.68255930E-17
  0.203999996      -2.59806445E-17
  0.204999998      -2.38992795E-17
  0.206000000      -2.04448227E-17
  0.207000002      -1.55149619E-17
  0.208000004      -9.05232879E-18
  0.209000006      -1.05496671E-18
  0.209999993       8.41381070E-18
  0.210999995       1.92167225E-17
  0.211999997       3.11355679E-17
  0.213000000       4.38666253E-17
  0.214000002       5.70189956E-17
  0.215000004       7.01165006E-17
  0.216000006       8.26035795E-17
  0.216999993       9.38556776E-17
  0.217999995       1.03194342E-16
  0.218999997       1.09907177E-16
  0.219999999       1.13272565E-16
  0.221000001       1.12588850E-16
  0.222000003       1.07207458E-16
  0.223000005       9.65691014E-17
  0.224000007       8.02420384E-17
  0.224999994       5.79609955E-17
  0.225999996       2.96652180E-17
  0.226999998      -4.46613176E-18
  0.228000000      -4.39832247E-17
  0.229000002      -8.81414412E-17
  0.230000004      -1.35886002E-16
  0.231000006      -1.85847314E-16
  0.231999993      -2.36348927E-16
  0.232999995      -2.85429669E-16
  0.233999997      -3.30881007E-16
  0.234999999      -3.70300755E-16
  0.236000001      -4.01162851E-16
  0.237000003      -4.20902821E-16
  0.238000005      -4.27017764E-16
  0.238999993      -4.17178603E-16
  0.239999995      -3.89351797E-16
  0.240999997      -3.41926687E-16
  0.241999999      -2.73843925E-16
  0.243000001      -1.84719953E-16
  0.244000003      -7.49615820E-17
  0.245000005       5.41355499E-17
  0.246000007       2.00310904E-16
  0.246999994       3.60291737E-16
  0.247999996       5.29780516E-16
  0.248999998       7.03482621E-16
  0.250000000       8.75178634E-16
  0.250999987       1.03784438E-15
  0.252000004       1.18382024E-15
  0.252999991       1.30503012E-15
  0.254000008       1.39324712E-15
  0.254999995       1.44040123E-15
  0.256000012       1.43892327E-15
  0.256999999       1.38211467E-15
  0.257999986       1.26453189E-15
  0.259000003       1.08237205E-15
  0.259999990       8.33843374E-16
  0.261000007       5.19505159E-16
  0.261999995       1.42557366E-16
  0.263000011      -2.90936891E-16
  0.263999999      -7.71914042E-16
  0.264999986      -1.28827443E-15
  0.266000003      -1.82496255E-15
  0.266999990      -2.36417526E-15
  0.268000007      -2.88570530E-15
  0.268999994      -3.36742247E-15
  0.270000011      -3.78589253E-15
  0.270999998      -4.11712392E-15
  0.272000015      -4.33743084E-15
  0.273000002      -4.42438978E-15
  0.273999989      -4.35786551E-15
  0.275000006      -4.12107236E-15
  0.275999993      -3.70163351E-15
  0.277000010      -3.09259755E-15
  0.277999997      -2.29336606E-15
  0.279000014      -1.31048385E-15
  0.280000001      -1.58246083E-16
  0.280999988       1.14092289E-15
  0.282000005       2.55636238E-15
  0.282999992       4.04937357E-15
  0.284000009       5.57375166E-15
  0.284999996       7.07667059E-15
  0.286000013       8.49992396E-15
  0.287000000       9.78151530E-15
  0.287999988       1.08575775E-14
  0.289000005       1.16645797E-14
  0.289999992       1.21417701E-14
  0.291000009       1.22337875E-14
  0.291999996       1.18933582E-14
  0.293000013       1.10839835E-14
  0.294000000       9.78251056E-15
  0.294999987       7.98147711E-15
  0.296000004       5.69111612E-15
  0.296999991       2.94090602E-15
  0.298000008      -2.19444320E-16
  0.298999995      -3.71967234E-15
  0.300000012      -7.46938217E-15
  0.300999999      -1.13592683E-14
  0.301999986      -1.52631881E-14
  0.303000003      -1.90410838E-14
  0.303999990      -2.25427350E-14
  0.305000007      -2.56122858E-14
  0.305999994      -2.80934452E-14
  0.307000011      -2.98352414E-14
  0.307999998      -3.06981647E-14
  0.308999985      -3.05605015E-14
  0.310000002      -2.93246466E-14
  0.310999990      -2.69231269E-14
  0.312000006      -2.33241279E-14
  0.312999994      -1.85362217E-14
  0.314000010      -1.26120512E-14
  0.314999998      -5.65074187E-15
  0.316000015       2.20118452E-15
  0.317000002       1.07505710E-14
  0.317999989       1.97601945E-14
  0.319000006       2.89532124E-14
  0.319999993       3.80195041E-14
  0.321000010       4.66238512E-14
  0.321999997       5.44158089E-14
  0.323000014       6.10410838E-14
  0.324000001       6.61540796E-14
  0.324999988       6.94313246E-14
  0.326000005       7.05852884E-14
  0.326999992       6.93781648E-14
  0.328000009       6.56350720E-14
  0.328999996       5.92561143E-14
  0.330000013       5.02267939E-14
  0.331000000       3.86262237E-14
  0.331999987       2.46326227E-14
  0.333000004       8.52567291E-15
  0.333999991      -9.31463921E-15
  0.335000008      -2.84129477E-14
  0.335999995      -4.82073454E-14
  0.337000012      -6.80621602E-14
  0.338000000      -8.72844955E-14
  0.338999987      -1.05144300E-13
  0.340000004      -1.20897487E-13
  0.340999991      -1.33811500E-13
  0.342000008      -1.43192641E-13
  0.342999995      -1.48414186E-13
  0.344000012      -1.48944523E-13
  0.344999999      -1.44374055E-13
  0.345999986      -1.34439890E-13
  0.347000003      -1.19047269E-13
  0.347999990      -9.82866336E-14
  0.349000007      -7.24452914E-14
  0.349999994      -4.20129934E-14
  0.351000011      -7.68056612E-15
  0.351999998       2.96687757E-14
  0.352999985       6.89757835E-14
  0.354000002       1.09029105E-13
  0.354999989       1.48496599E-13
  0.356000006       1.85963360E-13
  0.356999993       2.19975649E-13
  0.358000010       2.49089567E-13
  0.358999997       2.71923028E-13
  0.360000014       2.87209384E-13
  0.361000001       2.93850990E-13
  0.361999989       2.90970590E-13
  0.363000005       2.77958591E-13
  0.363999993       2.54514210E-13
  0.365000010       2.20678592E-13
  0.365999997       1.76858040E-13
  0.367000014       1.23835878E-13
  0.368000001       6.27716940E-14
  0.368999988      -4.81293946E-15
  0.370000005      -7.70625832E-14
  0.370999992      -1.51829951E-13
  0.372000009      -2.26731231E-13
  0.372999996      -2.99213535E-13
  0.374000013      -3.66633048E-13
  0.375000000      -4.26341606E-13
  0.375999987      -4.75779247E-13
  0.377000004      -5.12569859E-13
  0.377999991      -5.34616459E-13
  0.379000008      -5.40192782E-13
  0.379999995      -5.28027871E-13
  0.381000012      -4.97379807E-13
  0.381999999      -4.48095472E-13
  0.382999986      -3.80653245E-13
  0.384000003      -2.96185927E-13
  0.384999990      -1.96482099E-13
  0.386000007      -8.39642890E-14
  0.386999995       3.83565995E-14
  0.388000011       1.66950384E-13
  0.388999999       2.97859177E-13
  0.389999986       4.26809575E-13
  0.391000003       5.49342635E-13
  0.391999990       6.60957888E-13
  0.393000007       7.57267350E-13
  0.393999994       8.34154143E-13
  0.395000011       8.87930896E-13
  0.395999998       9.15491858E-13
  0.397000015       9.14452758E-13
  0.398000002       8.83273272E-13
  0.398999989       8.21356492E-13
  0.400000006       7.29120432E-13
  0.400999993       6.08037492E-13
  0.402000010       4.60639122E-13
  0.402999997       2.90483512E-13
  0.404000014       1.02085000E-13
  0.405000001      -9.91933044E-14
  0.405999988      -3.07282520E-13
  0.407000005      -5.15583073E-13
  0.407999992      -7.17166994E-13
  0.409000009      -9.05001876E-13
  0.409999996      -1.07218932E-12
  0.411000013      -1.21221024E-12
  0.412000000      -1.31916819E-12
  0.412999988      -1.38802262E-12
  0.414000005      -1.41480198E-12
  0.414999992      -1.39678937E-12
  0.416000009      -1.33267247E-12
  0.416999996      -1.22265002E-12
  0.418000013      -1.06848970E-12
  0.419000000      -8.73533342E-13
  0.419999987      -6.42646201E-13
  0.421000004      -3.82110386E-13
  0.421999991      -9.94636502E-14
  0.423000008       1.96713197E-13
  0.423999995       4.97054383E-13
  0.425000012       7.91705460E-13
  0.425999999       1.07064878E-12
  0.426999986       1.32404721E-12
  0.428000003       1.54259483E-12
  0.428999990       1.71786175E-12
  0.430000007       1.84262024E-12
  0.430999994       1.91114008E-12
  0.432000011       1.91944008E-12
  0.432999998       1.86548693E-12
  0.433999985       1.74932996E-12
  0.435000002       1.57316608E-12
  0.435999990       1.34132896E-12
  0.437000006       1.06020097E-12
  0.437999994       7.38048186E-13
  0.439000010       3.84781454E-13
  0.439999998       1.16505519E-14
  0.441000015      -3.69120153E-13
  0.442000002      -7.44742538E-13
  0.442999989      -1.10230824E-12
  0.444000006      -1.42924995E-12
  0.444999993      -1.71380314E-12
  0.446000010      -1.94545140E-12
  0.446999997      -2.11533742E-12
  0.448000014      -2.21662445E-12
  0.449000001      -2.24479159E-12
  0.449999988      -2.19785084E-12
  0.451000005      -2.07647528E-12
  0.451999992      -1.88402961E-12
  0.453000009      -1.62650080E-12
  0.453999996      -1.31232807E-12
  0.455000013      -9.52135181E-13
  0.456000000      -5.58373443E-13
  0.456999987      -1.44887005E-13
  0.458000004       2.73585923E-13
  0.458999991       6.81957258E-13
  0.460000008       1.06535874E-12
  0.460999995       1.40971577E-12
  0.462000012       1.70230247E-12
  0.463000000       1.93225579E-12
  0.463999987       2.09102722E-12
  0.465000004       2.17275156E-12
  0.465999991       2.17451686E-12
  0.467000008       2.09652217E-12
  0.467999995       1.94211162E-12
  0.469000012       1.71768405E-12
  0.469999999       1.43247371E-12
  0.470999986       1.09821137E-12
  0.472000003       7.28675583E-13
  0.472999990       3.39148577E-13
  0.474000007      -5.42024243E-14
  0.474999994      -4.34994163E-13
  0.476000011      -7.87321543E-13
  0.476999998      -1.09644693E-12
  0.477999985      -1.34945538E-12
  0.479000002      -1.53584805E-12
  0.479999989      -1.64804596E-12
  0.481000006      -1.68177852E-12
  0.481999993      -1.63633820E-12
  0.483000010      -1.51468465E-12
  0.483999997      -1.32338899E-12
  0.485000014      -1.07241549E-12
  0.486000001      -7.74743659E-13
  0.486999989      -4.45842202E-13
  0.488000005      -1.03012569E-13
  0.488999993       2.35374898E-13
  0.490000010       5.50721469E-13
  0.490999997       8.25083437E-13
  0.492000014       1.04206108E-12
  0.493000001       1.18765360E-12
  0.493999988       1.25103996E-12
  0.495000005       1.22524723E-12
  0.495999992       1.10767201E-12
  0.497000009       9.00424375E-13
  0.497999996       6.10469249E-13
  0.499000013       2.49549459E-13
  0.500000000      -1.66116700E-13
  0.500999987      -6.16362864E-13
  0.501999974      -1.07781416E-12
  0.503000021      -1.52481868E-12
  0.504000008      -1.93053841E-12
  0.504999995      -2.26816049E-12
  0.505999982      -2.51218295E-12
  0.507000029      -2.63972069E-12
  0.508000016      -2.63177587E-12
  0.509000003      -2.47441325E-12
  0.509999990      -2.15978537E-12
  0.510999978      -1.68695234E-12
  0.512000024      -1.06244614E-12
  0.513000011      -3.00541547E-13
  0.513999999       5.76797399E-13
  0.514999986       1.54031323E-12
  0.515999973       2.55419904E-12
  0.517000020       3.57717848E-12
  0.518000007       4.56389874E-12
  0.518999994       5.46659593E-12
  0.519999981       6.23698228E-12
  0.521000028       6.82828447E-12
  0.522000015       7.19736293E-12
  0.523000002       7.30682528E-12
  0.523999989       7.12704505E-12
  0.524999976       6.63799701E-12
  0.526000023       5.83082064E-12
  0.527000010       4.70903004E-12
  0.527999997       3.28929852E-12
  0.528999984       1.60175736E-12
  0.529999971      -3.10234206E-13
  0.531000018      -2.39086919E-12
  0.532000005      -4.57323068E-12
  0.532999992      -6.78116504E-12
  0.533999979      -8.93164969E-12
  0.535000026      -1.09375928E-11
  0.536000013      -1.27109781E-11
  0.537000000      -1.41662489E-11
  0.537999988      -1.52238187E-11
  0.538999975      -1.58135727E-11
  0.540000021      -1.58782206E-11
  0.541000009      -1.53763616E-11
  0.541999996      -1.42851243E-11
  0.542999983      -1.26022560E-11
  0.544000030      -1.03475440E-11
  0.545000017      -7.56347415E-12
  0.546000004      -4.31506090E-12
  0.546999991      -6.88801446E-13
  0.547999978       3.20924927E-12
  0.549000025       7.25626156E-12
  0.550000012       1.13162145E-11
  0.550999999       1.52441879E-11
  0.551999986       1.88912358E-11
  0.552999973       2.21096908E-11
  0.554000020       2.47587176E-11
  0.555000007       2.67099207E-11
  0.555999994       2.78528017E-11
  0.556999981       2.80998419E-11
  0.558000028       2.73910009E-11
  0.559000015       2.56974407E-11
  0.560000002       2.30242856E-11
  0.560999990       1.94122652E-11
  0.561999977       1.49381237E-11
  0.563000023       9.71371941E-12
  0.564000010       3.88377351E-12
  0.564999998      -2.37770242E-12
  0.565999985      -8.87224322E-12
  0.566999972      -1.53829085E-11
  0.568000019      -2.16812384E-11
  0.569000006      -2.75349743E-11
  0.569999993      -3.27162950E-11
  0.570999980      -3.70102907E-11
  0.572000027      -4.02233663E-11
  0.573000014      -4.21912609E-11
  0.574000001      -4.27863855E-11
  0.574999988      -4.19241517E-11
  0.575999975      -3.95680190E-11
  0.577000022      -3.57330415E-11
  0.578000009      -3.04876784E-11
  0.578999996      -2.39537435E-11
  0.579999983      -1.63044266E-11
  0.580999970      -7.76033578E-12
  0.582000017       1.41633753E-12
  0.583000004       1.09294292E-11
  0.583999991       2.04579669E-11
  0.584999979       2.96666372E-11
  0.586000025       3.82172072E-11
  0.587000012       4.57805460E-11
  0.588000000       5.20488097E-11
  0.588999987       5.67473742E-11
  0.589999974       5.96460520E-11
  0.591000021       6.05691539E-11
  0.592000008       5.94040095E-11
  0.592999995       5.61075492E-11
  0.593999982       5.07106336E-11
  0.595000029       4.33198963E-11
  0.596000016       3.41169176E-11
  0.597000003       2.33546793E-11
  0.597999990       1.13512975E-11
  0.598999977      -1.51882153E-12
  0.600000024      -1.48361861E-11
  0.601000011      -2.81494758E-11
  0.601999998      -4.09904437E-11
  0.602999985      -5.28899632E-11
  0.603999972      -6.33947270E-11
  0.605000019      -7.20839777E-11
  0.606000006      -7.85856796E-11
  0.606999993      -8.25915308E-11
  0.607999980      -8.38702302E-11
  0.609000027      -8.22784549E-11
  0.610000014      -7.77690690E-11
  0.611000001      -7.03961958E-11
  0.611999989      -6.03168349E-11
  0.612999976      -4.77888423E-11
  0.614000022      -3.31652206E-11
  0.615000010      -1.68848616E-11
  0.615999997       5.40132175E-13
  0.616999984       1.85401538E-11
  0.617999971       3.65063813E-11
  0.619000018       5.38110667E-11
  0.620000005       6.98291494E-11
  0.620999992       8.39605122E-11
  0.621999979       9.56520210E-11
  0.623000026       1.04418627E-10
  0.624000013       1.09862695E-10
  0.625000000       1.11690844E-10
  0.625999987       1.09727581E-10
  0.626999974       1.03925167E-10
  0.628000021       9.43692277E-11
  0.629000008       8.12798231E-11
  0.629999995       6.50077353E-11
  0.630999982       4.60259955E-11
  0.632000029       2.49168325E-11
  0.633000016       2.35433374E-12
  0.634000003      -2.09166486E-11
  0.634999990      -4.41047476E-11
  0.635999978      -6.63986643E-11
  0.637000024      -8.69952166E-11
  0.638000011      -1.05127948E-10
  0.638999999      -1.20095184E-10
  0.639999986      -1.31286607E-10
  0.640999973      -1.38207348E-10
  0.642000020      -1.40498654E-10
  0.643000007      -1.37954273E-10
  0.643999994      -1.30531919E-10
  0.644999981      -1.18359225E-10
  0.646000028      -1.01733871E-10
  0.647000015      -8.11176681E-11
  0.648000002      -5.71247216E-11
  0.648999989      -3.05038876E-11
  0.649999976      -2.11600789E-12
  0.651000023       2.70933866E-11
  0.652000010       5.61250699E-11
  0.652999997       8.39597836E-11
  0.653999984       1.09593452E-10
  0.654999971       1.32072769E-10
  0.656000018       1.50529866E-10
  0.657000005       1.64214822E-10
  0.657999992       1.72524828E-10
  0.658999979       1.75028908E-10
  0.660000026       1.71487186E-10
  0.661000013       1.61863897E-10
  0.662000000       1.46333570E-10
  0.662999988       1.25279981E-10
  0.663999975       9.92877724E-11
  0.665000021       6.91268293E-11
  0.666000009       3.57298635E-11
  0.666999996       1.63790856E-13
  0.667999983      -3.64041852E-11
  0.669000030      -7.27447477E-11
  0.670000017      -1.07607603E-10
  0.671000004      -1.39764242E-10
  0.671999991      -1.68050809E-10
  0.672999978      -1.91409652E-10
  0.674000025      -2.08928000E-10
  0.675000012      -2.19872398E-10
  0.675999999      -2.23717586E-10
  0.676999986      -2.20168772E-10
  0.677999973      -2.09176357E-10
  0.679000020      -1.90942373E-10
  0.680000007      -1.65918446E-10
  0.680999994      -1.34795036E-10
  0.681999981      -9.84822571E-11
  0.683000028      -5.80828129E-11
  0.684000015      -1.48577886E-11
  0.685000002       2.98135648E-11
  0.685999990       7.44787843E-11
  0.686999977       1.17660395E-10
  0.688000023       1.57905730E-10
  0.689000010       1.93836669E-10
  0.689999998       2.24197549E-10
  0.690999985       2.47899562E-10
  0.691999972       2.64060163E-10
  0.693000019       2.72035783E-10
  0.694000006       2.71446920E-10
  0.694999993       2.62194488E-10
  0.695999980       2.44466697E-10
  0.697000027       2.18736265E-10
  0.698000014       1.85747806E-10
  0.699000001       1.46495732E-10
  0.699999988       1.02193420E-10
  0.700999975       5.42344641E-11
  0.702000022       4.14742372E-12
  0.703000009      -4.64545416E-11
  0.703999996      -9.59274188E-11
  0.704999983      -1.42651654E-10
  0.705999970      -1.85087126E-10
  0.707000017      -2.21825808E-10
  0.708000004      -2.51640403E-10
  0.708999991      -2.73527173E-10
  0.709999979      -2.86741325E-10
  0.711000025      -2.90823809E-10
  0.712000012      -2.85618584E-10
  0.713000000      -2.71279388E-10
  0.713999987      -2.48266019E-10
  0.714999974      -2.17330084E-10
  0.716000021      -1.79490575E-10
  0.717000008      -1.36000156E-10
  0.717999995      -8.83031773E-11
  0.718999982      -3.79869365E-11
  0.720000029       1.32721785E-11
  0.721000016       6.37658537E-11
  0.722000003       1.11812316E-10
  0.722999990       1.55814028E-10
  0.723999977       1.94312677E-10
  0.725000024       2.26039423E-10
  0.726000011       2.49958665E-10
  0.726999998       2.65303890E-10
  0.727999985       2.71604045E-10
  0.728999972       2.68699785E-10
  0.730000019       2.56748789E-10
  0.731000006       2.36220044E-10
  0.731999993       2.07877104E-10
  0.732999980       1.72751147E-10
  0.734000027       1.32104563E-10
  0.735000014       8.73863135E-11
  0.736000001       4.01808864E-11
  0.736999989      -7.84770512E-12
  0.737999976      -5.50146734E-11
  0.739000022      -9.96739150E-11
  0.740000010      -1.40276096E-10
  0.740999997      -1.75423315E-10
  0.741999984      -2.03918341E-10
  0.742999971      -2.24806632E-10
  0.744000018      -2.37409759E-10
  0.745000005      -2.41348885E-10
  0.745999992      -2.36557579E-10
  0.746999979      -2.23283267E-10
  0.748000026      -2.02077619E-10
  0.749000013      -1.73775799E-10
  0.750000000      -1.39465564E-10
  0.750999987      -1.00447324E-10
  0.751999974      -5.81863793E-11
  0.753000021      -1.42592743E-11
  0.754000008       2.97039407E-11
  0.754999995       7.20793772E-11
  0.755999982       1.11308823E-10
  0.757000029       1.45956899E-10
  0.758000016       1.74763731E-10
  0.759000003       1.96691344E-10
  0.759999990       2.10961915E-10
  0.760999978       2.17086571E-10
  0.762000024       2.14883653E-10
  0.763000011       2.04485651E-10
  0.763999999       1.86334628E-10
  0.764999986       1.61166178E-10
  0.765999973       1.29982483E-10
  0.767000020       9.40154135E-11
  0.768000007       5.46809265E-11
  0.768999994       1.35264577E-11
  0.769999981      -2.78268519E-11
  0.771000028      -6.77450041E-11
  0.772000015      -1.04642850E-10
  0.773000002      -1.37044390E-10
  0.773999989      -1.63639463E-10
  0.774999976      -1.83334695E-10
  0.776000023      -1.95296807E-10
  0.777000010      -1.98986633E-10
  0.777999997      -1.94182517E-10
  0.778999984      -1.80992138E-10
  0.779999971      -1.59852215E-10
  0.781000018      -1.31515993E-10
  0.782000005      -9.70287461E-11
  0.782999992      -5.76922468E-11
  0.783999979      -1.50192376E-11
  0.785000026       2.93205529E-11
  0.786000013       7.35609351E-11
  0.787000000       1.15904203E-10
  0.787999988       1.54588259E-10
  0.788999975       1.87953389E-10
  0.790000021       2.14506440E-10
  0.791000009       2.32979913E-10
  0.791999996       2.42383724E-10
  0.792999983       2.42047771E-10
  0.794000030       2.31653599E-10
  0.795000017       2.11253820E-10
  0.796000004       1.81278409E-10
  0.796999991       1.42527407E-10
  0.797999978       9.61501434E-11
  0.799000025       4.36113923E-11
  0.800000012      -1.33544929E-11
  0.800999999      -7.28000715E-11
  0.801999986      -1.32630101E-10
  0.802999973      -1.90673574E-10
  0.804000020      -2.44759879E-10
  0.805000007      -2.92796704E-10
  0.805999994      -3.32846806E-10
  0.806999981      -3.63200997E-10
  0.808000028      -3.82444798E-10
  0.809000015      -3.89516169E-10
  0.810000002      -3.83752169E-10
  0.810999990      -3.64922703E-10
  0.811999977      -3.33250011E-10
  0.813000023      -2.89412799E-10
  0.814000010      -2.34534614E-10
  0.814999998      -1.70156569E-10
  0.815999985      -9.81948689E-11
  0.816999972      -2.08845823E-11
  0.818000019       5.92889765E-11
  0.819000006       1.39669110E-10
  0.819999993       2.17514257E-10
  0.820999980       2.90089536E-10
  0.822000027       3.54760138E-10
  0.823000014       4.09083600E-10
  0.824000001       4.50897764E-10
  0.824999988       4.78401152E-10
  0.825999975       4.90223195E-10
  0.827000022       4.85481433E-10
  0.828000009       4.63823813E-10
  0.828999996       4.25453894E-10
  0.829999983       3.71137926E-10
  0.830999970       3.02193381E-10
  0.832000017       2.20458665E-10
  0.833000004       1.28244609E-10
  0.833999991       2.82689913E-11
  0.834999979      -7.64239505E-11
  0.836000025      -1.82556859E-10
  0.837000012      -2.86722646E-10
  0.838000000      -3.85494414E-10
  0.838999987      -4.75538720E-10
  0.839999974      -5.53728285E-10
  0.841000021      -6.17250528E-10
  0.842000008      -6.63708033E-10
  0.842999995      -6.91207591E-10
  0.843999982      -6.98434532E-10
  0.845000029      -6.84709511E-10
  0.846000016      -6.50025589E-10
  0.847000003      -5.95063832E-10
  0.847999990      -5.21186261E-10
  0.848999977      -4.30406266E-10
  0.850000024      -3.25336730E-10
  0.851000011      -2.09116890E-10
  0.851999998      -8.53202162E-11
  0.852999985       4.21541968E-11
  0.853999972       1.69203512E-10
  0.855000019       2.91652591E-10
  0.856000006       4.05390804E-10