   0.00000000       0.00000000    
   1.00000005E-03   0.00000000    
   2.00000009E-03   0.00000000    
   3.00000003E-03   0.00000000    
   4.00000019E-03   0.00000000    
   4.99999989E-03   0.00000000    
   6.00000005E-03   0.00000000    
   7.00000022E-03   0.00000000    
   8.00000038E-03   0.00000000    
   8.99999961E-03   0.00000000    
   9.99999978E-03   0.00000000    
   1.09999999E-02   0.00000000    
   1.20000001E-02   0.00000000    
   1.30000003E-02   0.00000000    
   1.40000004E-02   0.00000000    
   1.49999997E-02   0.00000000    
   1.60000008E-02   0.00000000    
   1.70000009E-02   0.00000000    
   1.79999992E-02   0.00000000    
   1.89999994E-02   0.00000000    
   1.99999996E-02  -2.34868104E-38
   2.09999997E-02  -1.06178851E-37
   2.19999999E-02  -2.78385540E-37
   2.30000000E-02  -5.98197633E-37
   2.40000002E-02  -1.12916917E-36
   2.50000004E-02  -1.86447653E-36
   2.60000005E-02  -2.53065463E-36
   2.70000007E-02  -2.09589445E-36
   2.80000009E-02   2.29329628E-36
   2.89999992E-02   1.74631797E-35
   2.99999993E-02   5.83221120E-35
   3.09999995E-02   1.55343473E-34
   3.20000015E-02   3.67642493E-34
   3.29999998E-02   8.05009113E-34
   3.40000018E-02   1.66382685E-33
   3.50000001E-02   3.28387020E-33
   3.59999985E-02   6.23559713E-33
   3.70000005E-02   1.14507373E-32
   3.79999988E-02   2.04126592E-32
   3.90000008E-02   3.54269547E-32
   3.99999991E-02   5.99966557E-32
   4.10000011E-02   9.93296841E-32
   4.19999994E-02   1.61008120E-31
   4.30000015E-02   2.55847850E-31
   4.39999998E-02   3.98972375E-31
   4.50000018E-02   6.11113558E-31
   4.60000001E-02   9.20132779E-31
   4.69999984E-02   1.36272653E-30
   4.80000004E-02   1.98623732E-30
   4.89999987E-02   2.85043255E-30
   5.00000007E-02   4.02903754E-30
   5.09999990E-02   5.61071391E-30
   5.20000011E-02   7.69906068E-30
   5.29999994E-02   1.04110868E-29
   5.40000014E-02   1.38734559E-29
   5.49999997E-02   1.82156606E-29
   5.60000017E-02   2.35591291E-29
   5.70000000E-02   3.00011647E-29
   5.79999983E-02   3.75925305E-29
   5.90000004E-02   4.63074267E-29
   5.99999987E-02   5.60047909E-29
   6.10000007E-02   6.63799501E-29
   6.19999990E-02   7.69060961E-29
   6.30000010E-02   8.67655454E-29
   6.40000030E-02   9.47716903E-29
   6.49999976E-02   9.92834822E-29
   6.59999996E-02   9.81157306E-29
   6.70000017E-02   8.84502105E-29
   6.80000037E-02   6.67545134E-29
   6.89999983E-02   2.87177882E-29
   7.00000003E-02  -3.07849128E-29
   7.10000023E-02  -1.17685466E-28
   7.19999969E-02  -2.38655846E-28
   7.29999989E-02  -4.00962629E-28
   7.40000010E-02  -6.12221592E-28
   7.50000030E-02  -8.80030288E-28
   7.59999976E-02  -1.21145625E-27
   7.69999996E-02  -1.61235985E-27
   7.80000016E-02  -2.08653421E-27
   7.90000036E-02  -2.63465021E-27
   7.99999982E-02  -3.25300199E-27
   8.10000002E-02  -3.93206177E-27
   8.20000023E-02  -4.65486713E-27
   8.29999968E-02  -5.39528089E-27
   8.39999989E-02  -6.11619075E-27
   8.50000009E-02  -6.76773939E-27
   8.60000029E-02  -7.28570670E-27
   8.69999975E-02  -7.59019314E-27
   8.79999995E-02  -7.58480131E-27
   8.90000015E-02  -7.15653072E-27
   9.00000036E-02  -6.17663683E-27
   9.09999982E-02  -4.50273331E-27
   9.20000002E-02  -1.98243191E-27
   9.30000022E-02   1.54118807E-27
   9.39999968E-02   6.22199402E-27
   9.49999988E-02   1.22008563E-26
   9.60000008E-02   1.95931663E-26
   9.70000029E-02   2.84737248E-26
   9.79999974E-02   3.88590602E-26
   9.89999995E-02   5.06873916E-26
  0.100000001       6.37966544E-26
  0.101000004       7.79013271E-26
  0.101999998       9.25689877E-26
  0.103000000       1.07197951E-25
  0.104000002       1.20997630E-25
  0.104999997       1.32973636E-25
  0.105999999       1.41919935E-25
  0.107000001       1.46420805E-25
  0.108000003       1.44865344E-25
  0.108999997       1.35477665E-25
  0.109999999       1.16365612E-25
  0.111000001       8.55908351E-26
  0.112000003       4.12625653E-26
  0.112999998      -1.83433780E-26
  0.114000000      -9.46397784E-26
  0.115000002      -1.88558168E-25
  0.115999997      -3.00356448E-25
  0.116999999      -4.29408594E-25
  0.118000001      -5.73983231E-25
  0.119000003      -7.31020785E-25
  0.119999997      -8.95921459E-25
  0.120999999      -1.06235918E-24
  0.122000001      -1.22213950E-24
  0.123000003      -1.36512192E-24
  0.123999998      -1.47922829E-24
  0.125000000      -1.55056143E-24
  0.126000002      -1.56365652E-24
  0.127000004      -1.50188743E-24
  0.128000006      -1.34804732E-24
  0.128999993      -1.08511703E-24
  0.129999995      -6.97228351E-25
  0.130999997      -1.70819620E-25
  0.131999999       5.04029708E-25
  0.133000001       1.33211381E-24
  0.134000003       2.31150741E-24
  0.135000005       3.43192635E-24
  0.136000007       4.67311813E-24
  0.136999995       6.00338532E-24
  0.137999997       7.37834542E-24
  0.138999999       8.74006844E-24
  0.140000001       1.00167223E-23
  0.141000003       1.11228780E-23
  0.142000005       1.19606160E-23
  0.143000007       1.24215766E-23
  0.143999994       1.23900624E-23
  0.144999996       1.17472859E-23
  0.145999998       1.03768073E-23
  0.147000000       8.17114905E-24
  0.148000002       5.03950734E-24
  0.149000004       9.16411825E-25
  0.150000006      -4.22891884E-24
  0.150999993      -1.03828618E-23
  0.151999995      -1.74777529E-23
  0.152999997      -2.53828665E-23
  0.153999999      -3.38966273E-23
  0.155000001      -4.27407552E-23
  0.156000003      -5.15571246E-23
  0.157000005      -5.99080346E-23
  0.158000007      -6.72807538E-23
  0.158999994      -7.30969559E-23
  0.159999996      -7.67277166E-23
  0.160999998      -7.75144129E-23
  0.162000000      -7.47958152E-23
  0.163000003      -6.79412513E-23
  0.164000005      -5.63893868E-23
  0.165000007      -3.96918993E-23
  0.165999994      -1.75606670E-23
  0.166999996       1.00831097E-23
  0.167999998       4.30601177E-23
  0.169000000       8.08870709E-23
  0.170000002       1.22736735E-22
  0.171000004       1.67407341E-22
  0.172000006       2.13304707E-22
  0.172999993       2.58440930E-22
  0.173999995       3.00453011E-22
  0.174999997       3.36644687E-22
  0.175999999       3.64053931E-22
  0.177000001       3.79548270E-22
  0.178000003       3.79948380E-22
  0.179000005       3.62179496E-22
  0.180000007       3.23448673E-22
  0.180999994       2.61443600E-22
  0.181999996       1.74547744E-22
  0.182999998       6.20634424E-23
  0.184000000      -7.55664818E-23
  0.185000002      -2.36550381E-22
  0.186000004      -4.17566064E-22
  0.187000006      -6.13620037E-22
  0.187999994      -8.17963587E-22
  0.188999996      -1.02208060E-21
  0.189999998      -1.21576213E-21
  0.191000000      -1.38728185E-21
  0.192000002      -1.52368194E-21
  0.193000004      -1.61117789E-21
  0.194000006      -1.63568453E-21
  0.194999993      -1.58346027E-21
  0.195999995      -1.44186133E-21
  0.196999997      -1.20018828E-21
  0.197999999      -8.50601072E-22
  0.199000001      -3.89070288E-22
  0.200000003       1.83675268E-22
  0.201000005       8.61253244E-22
  0.202000007       1.63083767E-21
  0.202999994       2.47253413E-21
  0.203999996       3.35898135E-21
  0.204999998       4.25524164E-21
  0.206000000       5.11903872E-21
  0.207000002       5.90140053E-21
  0.208000004       6.54774564E-21
  0.209000006       6.99944644E-21
  0.209999993       7.19588326E-21
  0.210999995       7.07697847E-21
  0.211999997       6.58617804E-21
  0.213000000       5.67382327E-21
  0.214000002       4.30081775E-21
  0.215000004       2.44247411E-21
  0.216000006       9.23874007E-23
  0.216999993      -2.73383960E-21
  0.217999995      -5.99522333E-21
  0.218999997      -9.62259853E-21
  0.219999999      -1.35166215E-20
  0.221000001      -1.75468159E-20
  0.222000003      -2.15518839E-20
  0.223000005      -2.53415020E-20
  0.224000007      -2.86997519E-20
  0.224999994      -3.13903572E-20
  0.225999996      -3.31637516E-20
  0.226999998      -3.37660037E-20
  0.228000000      -3.29494989E-20
  0.229000002      -3.04852083E-20
  0.230000004      -2.61762210E-20
  0.231000006      -1.98722000E-20
  0.231999993      -1.14842315E-20
  0.232999995      -9.99473287E-22
  0.233999997       1.15050726E-20
  0.234999999       2.58504249E-20
  0.236000001       4.17459379E-20
  0.237000003       5.87828794E-20
  0.238000005       7.64321219E-20
  0.238999993       9.40466616E-20
  0.239999995       1.10869667E-19
  0.240999997       1.26048599E-19
  0.241999999       1.38655788E-19
  0.243000001       1.47715458E-19
  0.244000003       1.52237254E-19
  0.245000005       1.51255714E-19
  0.246000007       1.43874949E-19
  0.246999994       1.29317462E-19
  0.247999996       1.06975592E-19
  0.248999998       7.64639296E-20
  0.250000000       3.76704707E-20
  0.250999987      -9.19572971E-21
  0.252000004      -6.35629752E-20
  0.252999991      -1.24464083E-19
  0.254000008      -1.90514882E-19
  0.254999995      -2.59906818E-19
  0.256000012      -3.30415745E-19
  0.256999999      -3.99429207E-19
  0.257999986      -4.63993678E-19
  0.259000003      -5.20882404E-19
  0.259999990      -5.66684636E-19
  0.261000007      -5.97914943E-19
  0.261999995      -6.11141458E-19
  0.263000011      -6.03130110E-19
  0.263999999      -5.71001795E-19
  0.264999986      -5.12397082E-19
  0.266000003      -4.25643336E-19
  0.266999990      -3.09917976E-19
  0.268000007      -1.65399933E-19
  0.268999994       6.59725652E-21
  0.270000011       2.03519621E-19
  0.270999998       4.21501384E-19
  0.272000015       6.55335908E-19
  0.273000002       8.98495369E-19
  0.273999989       1.14320497E-18
  0.275000006       1.38057633E-18
  0.275999993       1.60080087E-18
  0.277000010       1.79340553E-18
  0.277999997       1.94756697E-18
  0.279000014       2.05247891E-18
  0.280000001       2.09776726E-18
  0.280999988       2.07394032E-18
  0.282000005       1.97286092E-18
  0.282999992       1.78822635E-18
  0.284000009       1.51603646E-18
  0.284999996       1.15503117E-18
  0.286000013       7.07075694E-19
  0.287000000       1.77473449E-19
  0.287999988      -4.24815509E-19
  0.289000005      -1.08706970E-18
  0.289999992      -1.79283229E-18
  0.291000009      -2.52208361E-18
  0.291999996      -3.25156861E-18
  0.293000013      -3.95528611E-18
  0.294000000      -4.60513864E-18
  0.294999987      -5.17173792E-18
  0.296000004      -5.62534929E-18
  0.296999991      -5.93695567E-18
  0.298000008      -6.07941809E-18
  0.298999995      -6.02868917E-18
  0.300000012      -5.76504727E-18
  0.300999999      -5.27430335E-18
  0.301999986      -4.54892882E-18
  0.303000003      -3.58905644E-18
  0.303999990      -2.40329841E-18
  0.305000007      -1.00933312E-18
  0.305999994       5.65787145E-19
  0.307000011       2.28564955E-18
  0.307999998       4.10484822E-18
  0.308999985       5.96972691E-18
  0.310000002       7.81951287E-18
  0.310999990       9.58783228E-18
  0.312000006       1.12045882E-17
  0.312999994       1.25981758E-17
  0.314000010       1.36979736E-17
  0.314999998       1.44370446E-17
  0.316000015       1.47549682E-17
  0.317000002       1.46007139E-17
  0.317999989       1.39354291E-17
  0.319000006       1.27350494E-17
  0.319999993       1.09926017E-17
  0.321000010       8.72008011E-18
  0.321999997       5.94979227E-18
  0.323000014       2.73505739E-18
  0.324000001      -8.49817961E-19
  0.324999988      -4.71036387E-18
  0.326000005      -8.73361279E-18
  0.326999992      -1.27906210E-17
  0.328000009      -1.67398278E-17
  0.328999996      -2.04312139E-17
  0.330000013      -2.37111505E-17
  0.331000000      -2.64278366E-17
  0.331999987      -2.84371592E-17
  0.333000004      -2.96087944E-17
  0.333999991      -2.98323283E-17
  0.335000008      -2.90231604E-17
  0.335999995      -2.71279606E-17
  0.337000012      -2.41294011E-17
  0.338000000      -2.00499349E-17
  0.338999987      -1.49543667E-17
  0.340000004      -8.95103142E-18
  0.340999991      -2.19139335E-18
  0.342000008       5.13205930E-18
  0.342999995       1.27896904E-17
  0.344000012       2.05203658E-17
  0.344999999       2.80388254E-17
  0.345999986       3.50446415E-17
  0.347000003       4.12325216E-17
  0.347999990       4.63037377E-17
  0.349000007       4.99782625E-17
  0.349999994       5.20072406E-17
  0.351000011       5.21853260E-17
  0.351999998       5.03623953E-17
  0.352999985       4.64540959E-17
  0.354000002       4.04507400E-17
  0.354999989       3.24240473E-17
  0.356000006       2.25312617E-17
  0.356999993       1.10162657E-17
  0.358000010      -1.79261661E-18
  0.358999997      -1.54883349E-17
  0.360000014      -2.95944246E-17
  0.361000001      -4.35778798E-17
  0.361999989      -5.68653518E-17
  0.363000005      -6.88623823E-17
  0.363999993      -7.89751021E-17
  0.365000010      -8.66338813E-17
  0.365999997      -9.13179868E-17
  0.367000014      -9.25805291E-17
  0.368000001      -9.00726697E-17
  0.368999988      -8.35660405E-17
  0.370000005      -7.29724112E-17
  0.370999992      -5.83595444E-17
  0.372000009      -3.99622435E-17
  0.372999996      -1.81878537E-17
  0.374000013       6.38460472E-18
  0.375000000       3.30121165E-17
  0.375999987       6.08024933E-17
  0.377000004       8.87363230E-17
  0.377999991       1.15695886E-16
  0.379000008       1.40500465E-16
  0.379999995       1.61947141E-16
  0.381000012       1.78856182E-16
  0.381999999       1.90119338E-16
  0.382999986       1.94749723E-16
  0.384000003       1.91931194E-16
  0.384999990       1.81065508E-16
  0.386000007       1.61815043E-16
  0.386999995       1.34139115E-16
  0.388000011       9.83220360E-17
  0.388999999       5.49908877E-17
  0.389999986       5.12169142E-18
  0.391000003      -4.99674364E-17
  0.391999990      -1.08636853E-16
  0.393000007      -1.68960110E-16
  0.393999994      -2.28772773E-16
  0.395000011      -2.85734362E-16
  0.395999998      -3.37402578E-16
  0.397000015      -3.81317557E-16
  0.398000002      -4.15094028E-16
  0.398999989      -4.36518482E-16
  0.400000006      -4.43647959E-16
  0.400999993      -4.34906923E-16
  0.402000010      -4.09178323E-16
  0.402999997      -3.65884855E-16
  0.404000014      -3.05056692E-16
  0.405000001      -2.27381839E-16
  0.405999988      -1.34235862E-16
  0.407000005      -2.76881538E-17
  0.407999992       8.95173072E-17
  0.409000009       2.14008115E-16
  0.409999996       3.41856912E-16
  0.411000013       4.68681647E-16
  0.412000000       5.89771042E-16
  0.412999988       7.00232026E-16
  0.414000005       7.95156361E-16
  0.414999992       8.69800928E-16
  0.416000009       9.19776137E-16
  0.416999996       9.41235928E-16
  0.418000013       9.31063592E-16
  0.419000000       8.87043978E-16
  0.419999987       8.08016492E-16
  0.421000004       6.94001040E-16
  0.421999991       5.46290035E-16
  0.423000008       3.67500623E-16
  0.423999995       1.61582162E-16
  0.425000012      -6.62246688E-17
  0.425999999      -3.09479501E-16
  0.426999986      -5.60684777E-16
  0.428000003      -8.11478210E-16
  0.428999990      -1.05287085E-15
  0.430000007      -1.27552616E-15
  0.430999994      -1.47007385E-15
  0.432000011      -1.62744622E-15
  0.432999998      -1.73923043E-15
  0.433999985      -1.79802204E-15
  0.435000002      -1.79776793E-15
  0.435999990      -1.73408566E-15
  0.437000006      -1.60454499E-15
  0.437999994      -1.40889934E-15
  0.439000010      -1.14925473E-15
  0.439999998      -8.30165557E-16
  0.441000015      -4.58648647E-16
  0.442000002      -4.41093069E-17
  0.442999989       4.01824383E-16
  0.444000006       8.65559252E-16
  0.444999993       1.33188435E-15
  0.446000010       1.78440048E-15
  0.446999997       2.20602362E-15
  0.448000014       2.57954736E-15
  0.449000001       2.88825064E-15
  0.449999988       3.11652940E-15
  0.451000005       3.25053171E-15
  0.451999992       3.27877560E-15
  0.453000009       3.19272341E-15
  0.453999996       2.98729123E-15
  0.455000013       2.66126952E-15
  0.456000000       2.21763475E-15
  0.456999987       1.66373227E-15
  0.458000004       1.01131700E-15
  0.458999991       2.76439870E-16
  0.460000008      -5.20826001E-16
  0.460999995      -1.35681994E-15
  0.462000012      -2.20488457E-15
  0.463000000      -3.03610130E-15
  0.463999987      -3.82015544E-15
  0.465000004      -4.52630732E-15
  0.465999991      -5.12443964E-15
  0.467000008      -5.58615645E-15
  0.467999995      -5.88588838E-15
  0.469000012      -6.00197424E-15
  0.469999999      -5.91767160E-15
  0.470999986      -5.62206345E-15
  0.472000003      -5.11081808E-15
  0.472999990      -4.38676754E-15
  0.474000007      -3.46027486E-15
  0.474999994      -2.34935853E-15
  0.476000011      -1.07956403E-15
  0.476999998       3.16437533E-16
  0.477999985       1.79952044E-15
  0.479000002       3.32504075E-15
  0.479999989       4.84402049E-15
  0.481000006       6.30455389E-15
  0.481999993       7.65339923E-15
  0.483000010       8.83771307E-15
  0.483999997       9.80687462E-15
  0.485000014       1.05143462E-14
  0.486000001       1.09194981E-14
  0.486999989       1.09893445E-14
  0.488000005       1.07001200E-14
  0.488999993       1.00386313E-14
  0.490000010       9.00333173E-15
  0.490999997       7.60505736E-15
  0.492000014       5.86739045E-15
  0.493000001       3.82660941E-15
  0.493999988       1.53120539E-15
  0.495000005      -9.59037173E-16
  0.495999992      -3.57439391E-15
  0.497000009      -6.23696278E-15
  0.497999996      -8.86279626E-15
  0.499000013      -1.13643548E-14
  0.500000000      -1.36532140E-14
  0.500999987      -1.56429418E-14
  0.501999974      -1.72520706E-14
  0.503000021      -1.84070492E-14
  0.504000008      -1.90450988E-14
  0.504999995      -1.91168492E-14
  0.505999982      -1.85886750E-14
  0.507000029      -1.74446181E-14
  0.508000016      -1.56878261E-14
  0.509000003      -1.33414381E-14
  0.509999990      -1.04488460E-14
  0.510999978      -7.07329982E-15
  0.512000024      -3.29684430E-15
  0.513000011       7.81420610E-16
  0.513999999       5.04772302E-15
  0.514999986       9.37659628E-15
  0.515999973       1.36343844E-14
  0.517000020       1.76831833E-14
  0.518000007       2.13850984E-14
  0.518999994       2.46067086E-14
  0.519999981       2.72235813E-14
  0.521000028       2.91247027E-14
  0.522000015       3.02166671E-14
  0.523000002       3.04274970E-14
  0.523999989       2.97099110E-14
  0.524999976       2.80439463E-14
  0.526000023       2.54388151E-14
  0.527000010       2.19338843E-14
  0.527999997       1.75987273E-14
  0.528999984       1.25321972E-14
  0.529999971       6.86051667E-15
  0.531000018       7.34410600E-16
  0.532000005      -5.67467648E-15
  0.532999992      -1.21791810E-14
  0.533999979      -1.85807265E-14
  0.535000026      -2.46759840E-14
  0.536000013      -3.02629388E-14
  0.537000000      -3.51473442E-14
  0.537999988      -3.91491784E-14
  0.538999975      -4.21089216E-14
  0.540000021      -4.38933761E-14
  0.541000009      -4.44009114E-14
  0.541999996      -4.35658589E-14
  0.542999983      -4.13619504E-14
  0.544000030      -3.78046322E-14
  0.545000017      -3.29521261E-14
  0.546000004      -2.69051664E-14
  0.546999991      -1.98054125E-14
  0.547999978      -1.18324777E-14
  0.549000025      -3.19967289E-15
  0.550000012       5.85146030E-15
  0.550999999       1.50576962E-14
  0.551999986       2.41415757E-14
  0.552999973       3.28195485E-14
  0.554000020       4.08105793E-14
  0.555000007       4.78449576E-14
  0.555999994       5.36730423E-14
  0.556999981       5.80736427E-14
  0.558000028       6.08618109E-14
  0.559000015       6.18957197E-14
  0.560000002       6.10824190E-14
  0.560999990       5.83822880E-14
  0.561999977       5.38119252E-14
  0.563000023       4.74454155E-14
  0.564000010       3.94138559E-14
  0.564999998       2.99031125E-14
  0.565999985       1.91498327E-14
  0.566999972       7.43579731E-15
  0.568000019      -4.91928233E-15
  0.569000006      -1.75663147E-14
  0.569999993      -3.01365039E-14
  0.570999980      -4.22518906E-14
  0.572000027      -5.35364565E-14
  0.573000014      -6.36274345E-14
  0.574000001      -7.21865398E-14
  0.574999988      -7.89107413E-14
  0.575999975      -8.35422294E-14
  0.577000022      -8.58773163E-14
  0.578000009      -8.57738834E-14
  0.578999996      -8.31571953E-14
  0.579999983      -7.80238911E-14
  0.580999970      -7.04438881E-14
  0.582000017      -6.05602130E-14
  0.583000004      -4.85866433E-14
  0.583999991      -3.48032726E-14
  0.584999979      -1.95500015E-14
  0.586000025      -3.21815621E-15
  0.587000012       1.37595488E-14
  0.588000000       3.09204498E-14
  0.588999987       4.77844760E-14
  0.589999974       6.38674091E-14
  0.591000021       7.86945379E-14
  0.592000008       9.18142989E-14
  0.592999995       1.02811463E-13
  0.593999982       1.11319564E-13
  0.595000029       1.17032198E-13
  0.596000016       1.19712752E-13
  0.597000003       1.19202377E-13
  0.597999990       1.15425979E-13
  0.598999977       1.08395890E-13
  0.600000024       9.82132669E-14
  0.601000011       8.50670174E-14
  0.601999998       6.92303270E-14
  0.602999985       5.10548973E-14
  0.603999972       3.09628964E-14
  0.605000019       9.43696347E-15
  0.606000006      -1.29915389E-14
  0.606999993      -3.57557442E-14
  0.607999980      -5.82675862E-14
  0.609000027      -7.99328390E-14
  0.610000014      -1.00166525E-13
  0.611000001      -1.18408213E-13
  0.611999989      -1.34136883E-13
  0.612999976      -1.46884973E-13
  0.614000022      -1.56251165E-13
  0.615000010      -1.61911649E-13
  0.615999997      -1.63629567E-13
  0.616999984      -1.61262402E-13
  0.617999971      -1.54767001E-13
  0.619000018      -1.44202331E-13
  0.620000005      -1.29729642E-13
  0.620999992      -1.11610225E-13
  0.621999979      -9.02006605E-14
  0.623000026      -6.59457637E-14
  0.624000013      -3.93693324E-14
  0.625000000      -1.10629076E-14
  0.625999987       1.83271604E-14
  0.626999974       4.81141277E-14
  0.628000021       7.75863477E-14
  0.629000008       1.06023582E-13
  0.629999995       1.32713664E-13
  0.630999982       1.56969273E-13
  0.632000029       1.78144419E-13
  0.633000016       1.95650137E-13
  0.634000003       2.08969249E-13
  0.634999990       2.17669822E-13
  0.635999978       2.21416852E-13
  0.637000024       2.19982181E-13
  0.638000011       2.13252159E-13
  0.638999999       2.01233005E-13
  0.639999986       1.84053673E-13
  0.640999973       1.61966130E-13
  0.642000020       1.35342936E-13
  0.643000007       1.04672225E-13
  0.643999994       7.05499298E-14
  0.644999981       3.36695664E-14
  0.646000028      -5.19043579E-15
  0.647000015      -4.51816386E-14
  0.648000002      -8.54024899E-14
  0.648999989      -1.24916909E-13
  0.649999976      -1.62774294E-13
  0.651000023      -1.98030530E-13
  0.652000010      -2.29769627E-13
  0.652999997      -2.57125511E-13
  0.653999984      -2.79303707E-13
  0.654999971      -2.95602057E-13
  0.656000018      -3.05430404E-13
  0.657000005      -3.08328477E-13
  0.657999992      -3.03981558E-13
  0.658999979      -2.92233712E-13
  0.660000026      -2.73097707E-13
  0.661000013      -2.46761568E-13
  0.662000000      -2.13591501E-13
  0.662999988      -1.74130526E-13
  0.663999975      -1.29093147E-13
  0.665000021      -7.93555217E-14
  0.666000009      -2.59414140E-14
  0.666999996       2.99960862E-14
  0.667999983       8.71968445E-14
  0.669000030       1.44319628E-13
  0.670000017       1.99971252E-13
  0.671000004       2.52738504E-13
  0.671999991       3.01221965E-13
  0.672999978       3.44071261E-13
  0.674000025       3.80020749E-13
  0.675000012       4.07924698E-13
  0.675999999       4.26791415E-13
  0.676999986       4.35814769E-13
  0.677999973       4.34402731E-13
  0.679000020       4.22201797E-13
  0.680000007       3.99116287E-13
  0.680999994       3.65322030E-13
  0.681999981       3.21273634E-13
  0.683000028       2.67704804E-13
  0.684000015       2.05621449E-13
  0.685000002       1.36287208E-13
  0.685999990       6.12016134E-14
  0.686999977      -1.79290176E-14
  0.688000023      -9.92274771E-14
  0.689000010      -1.80687754E-13
  0.689999998      -2.60222426E-13
  0.690999985      -3.35714394E-13
  0.691999972      -4.05071565E-13
  0.693000019      -4.66283533E-13
  0.694000006      -5.17478096E-13
  0.694999993      -5.56977099E-13
  0.695999980      -5.83348691E-13
  0.697000027      -5.95455651E-13
  0.698000014      -5.92497514E-13
  0.699000001      -5.74045260E-13
  0.699999988      -5.40067502E-13
  0.700999975      -4.90946476E-13
  0.702000022      -4.27483759E-13
  0.703000009      -3.50894362E-13
  0.703999996      -2.62789383E-13
  0.704999983      -1.65147111E-13
  0.705999970      -6.02726826E-14
  0.707000017       4.92527534E-14
  0.708000004       1.60632480E-13
  0.708999991       2.70923014E-13
  0.709999979       3.77109449E-13
  0.711000025       4.76185877E-13
  0.712000012       5.65238340E-13
  0.713000000       6.41528334E-13
  0.713999987       7.02574717E-13
  0.714999974       7.46231148E-13
  0.716000021       7.70757156E-13
  0.717000008       7.74880431E-13
  0.717999995       7.57848211E-13
  0.718999982       7.19466153E-13
  0.720000029       6.60122673E-13
  0.721000016       5.80797888E-13
  0.722000003       4.83056683E-13
  0.722999990       3.69024689E-13
  0.723999977       2.41347930E-13
  0.725000024       1.03136683E-13
  0.726000011      -4.21058079E-14
  0.726999998      -1.90567858E-13
  0.727999985      -3.38225352E-13
  0.728999972      -4.80946934E-13
  0.730000019      -6.14605426E-13
  0.731000006      -7.35192994E-13
  0.731999993      -8.38936722E-13
  0.732999980      -9.22410911E-13
  0.734000027      -9.82643654E-13
  0.735000014      -1.01721398E-12
  0.736000001      -1.02433632E-12
  0.736999989      -1.00293038E-12
  0.737999976      -9.52672945E-13
  0.739000022      -8.74030449E-13
  0.740000010      -7.68270213E-13
  0.740999997      -6.37449945E-13
  0.741999984      -4.84384614E-13
  0.742999971      -3.12591316E-13
  0.744000018      -1.26213059E-13
  0.745000005       7.00774413E-14
  0.745999992       2.71191137E-13
  0.746999979       4.71751165E-13
  0.748000026       6.66233019E-13
  0.749000013       8.49112501E-13
  0.750000000       1.01501836E-12
  0.750999987       1.15888462E-12
  0.751999974       1.27609858E-12
  0.753000021       1.36264047E-12
  0.754000008       1.41521083E-12
  0.754999995       1.43134051E-12
  0.755999982       1.40948180E-12
  0.757000029       1.34907526E-12
  0.758000016       1.25059240E-12
  0.759000003       1.11554960E-12
  0.759999990       9.46494944E-13
  0.760999978       7.46965044E-13
  0.762000024       5.21414726E-13
  0.763000011       2.75118849E-13
  0.763999999       1.40493865E-14
  0.764999986      -2.55269330E-13
  0.765999973      -5.25924465E-13
  0.767000020      -7.90792670E-13
  0.768000007      -1.04272830E-12
  0.768999994      -1.27475678E-12
  0.769999981      -1.48026697E-12
  0.771000028      -1.65319895E-12
  0.772000015      -1.78822007E-12
  0.773000002      -1.88088520E-12
  0.773999989      -1.92777673E-12
  0.774999976      -1.92661880E-12
  0.776000023      -1.87636256E-12
  0.777000010      -1.77724025E-12
  0.777999997      -1.63078557E-12
  0.778999984      -1.43981788E-12
  0.779999971      -1.20839211E-12
  0.781000018      -9.41712745E-13
  0.782000005      -6.46015739E-13
  0.782999992      -3.28419583E-13
  0.783999979       3.25071721E-15
  0.785000026       3.40661960E-13
  0.786000013       6.75188800E-13
  0.787000000       9.98141348E-13
  0.787999988       1.30099891E-12
  0.788999975       1.57564283E-12
  0.790000021       1.81458245E-12
  0.791000009       2.01116771E-12
  0.791999996       2.15978212E-12
  0.792999983       2.25601048E-12
  0.794000030       2.29677627E-12
  0.795000017       2.28044450E-12
  0.796000004       2.20688680E-12
  0.796999991       2.07750549E-12
  0.797999978       1.89521597E-12
  0.799000025       1.66438770E-12
  0.800000012       1.39074364E-12
  0.800999999       1.08122116E-12
  0.801999986       7.43797168E-13
  0.802999973       3.87282410E-13
  0.804000020       2.10894195E-14
  0.805000007      -3.45018935E-13
  0.805999994      -7.01194203E-13
  0.806999981      -1.03777317E-12
  0.808000028      -1.34554629E-12
  0.809000015      -1.61601819E-12
  0.810000002      -1.84165053E-12
  0.810999990      -2.01608110E-12
  0.811999977      -2.13431399E-12
  0.813000023      -2.19287284E-12
  0.814000010      -2.18991318E-12
  0.814999998      -2.12529191E-12
  0.815999985      -2.00058741E-12
  0.816999972      -1.81907375E-12
  0.818000019      -1.58564546E-12
  0.819000006      -1.30669650E-12
  0.819999993      -9.89954429E-13
  0.820999980      -6.44276028E-13
  0.822000027      -2.79407709E-13
  0.823000014       9.42818414E-14
  0.824000001       4.66090003E-13
  0.824999988       8.25281521E-13
  0.825999975       1.16139444E-12
  0.827000022       1.46454203E-12
  0.828000009       1.72570194E-12
  0.828999996       1.93698486E-12
  0.829999983       2.09187355E-12
  0.830999970       2.18542632E-12
  0.832000017       2.21443718E-12
  0.833000004       2.17755089E-12
  0.833999991       2.07532385E-12
  0.834999979       1.91023217E-12
  0.836000025       1.68662588E-12
  0.837000012       1.41062769E-12
  0.838000000       1.08998043E-12
  0.838999987       7.33845222E-13
  0.839999974       3.52556688E-13
  0.841000021      -4.26592999E-14
  0.842000008      -4.39997593E-13
  0.842999995      -8.27407207E-13
  0.843999982      -1.19293724E-12
  0.845000029      -1.52508529E-12
  0.846000016      -1.81313959E-12
  0.847000003      -2.04750409E-12
  0.847999990      -2.21999784E-12
  0.848999977      -2.32412006E-12
  0.850000024      -2.35527288E-12
  0.851000011      -2.31093443E-12
  0.851999998      -2.19077816E-12
  0.852999985      -1.99673264E-12
  0.853999972      -1.73298105E-12
  0.855000019      -1.40589818E-12
  0.856000006      -1.02392671E-12