   0.00000000       0.00000000    
   1.00000005E-03   0.00000000    
   2.00000009E-03   0.00000000    
   3.00000003E-03   0.00000000    
   4.00000019E-03  -1.84700784E-19
   4.99999989E-03  -1.23261833E-18
   6.00000005E-03  -3.68204105E-18
   7.00000022E-03  -3.38219491E-18
   8.00000038E-03   2.26140410E-17
   8.99999961E-03   1.48377792E-16
   9.99999978E-03   5.60981080E-16
   1.09999999E-02   1.66469852E-15
   1.20000001E-02   4.23952992E-15
   1.30000003E-02   9.66205231E-15
   1.40000004E-02   2.01893437E-14
   1.49999997E-02   3.92942650E-14
   1.60000008E-02   7.20256171E-14
   1.70000009E-02   1.25348123E-13
   1.79999992E-02   2.08398050E-13
   1.89999994E-02   3.32569882E-13
   1.99999996E-02   5.11340211E-13
   2.09999997E-02   7.59721604E-13
   2.19999999E-02   1.09324312E-12
   2.30000000E-02   1.52637928E-12
   2.40000002E-02   2.07036298E-12
   2.50000004E-02   2.73038449E-12
   2.60000005E-02   3.50223041E-12
   2.70000007E-02   4.36849732E-12
   2.80000009E-02   5.29459679E-12
   2.89999992E-02   6.22488476E-12
   2.99999993E-02   7.07928161E-12
   3.09999995E-02   7.75091536E-12
   3.20000015E-02   8.10524217E-12
   3.29999998E-02   7.98126756E-12
   3.40000018E-02   7.19536540E-12
   3.50000001E-02   5.54813747E-12
   3.59999985E-02   2.83465829E-12
   3.70000005E-02  -1.14171769E-12
   3.79999988E-02  -6.55212993E-12
   3.90000008E-02  -1.35219483E-11
   3.99999991E-02  -2.21080862E-11
   4.10000011E-02  -3.22750923E-11
   4.19999994E-02  -4.38712469E-11
   4.30000015E-02  -5.66064834E-11
   4.39999998E-02  -7.00339786E-11
   4.50000018E-02  -8.35377253E-11
   4.60000001E-02  -9.63279942E-11
   4.69999984E-02  -1.07447135E-10
   4.80000004E-02  -1.15787199E-10
   4.89999987E-02  -1.20121357E-10
   5.00000007E-02  -1.19149274E-10
   5.09999990E-02  -1.11557465E-10
   5.20000011E-02  -9.60930502E-11
   5.29999994E-02  -7.16499221E-11
   5.40000014E-02  -3.73637093E-11
   5.49999997E-02   7.28745449E-12
   5.60000017E-02   6.23824256E-11
   5.70000000E-02   1.27460931E-10
   5.79999983E-02   2.01440142E-10
   5.90000004E-02   2.82549734E-10
   5.99999987E-02   3.68292868E-10
   6.10000007E-02   4.55438853E-10
   6.19999990E-02   5.40055278E-10
   6.30000010E-02   6.17582430E-10
   6.40000030E-02   6.82953860E-10
   6.49999976E-02   7.30763949E-10
   6.59999996E-02   7.55481455E-10
   6.70000017E-02   7.51703477E-10
   6.80000037E-02   7.14444948E-10
   6.89999983E-02   6.39451048E-10
   7.00000003E-02   5.23523558E-10
   7.10000023E-02   3.64841518E-10
   7.19999969E-02   1.63263791E-10
   7.29999989E-02  -7.94075500E-11
   7.40000010E-02  -3.59221236E-10
   7.50000030E-02  -6.69944766E-10
   7.59999976E-02  -1.00302533E-09
   7.69999996E-02  -1.34765554E-09
   7.80000016E-02  -1.69095882E-09
   7.90000036E-02  -2.01829309E-09
   7.99999982E-02  -2.31368191E-09
   8.10000002E-02  -2.56036259E-09
   8.20000023E-02  -2.74143863E-09
   8.29999968E-02  -2.84062152E-09
   8.39999989E-02  -2.84303625E-09
   8.50000009E-02  -2.73605583E-09
   8.60000029E-02  -2.51013565E-09
   8.69999975E-02  -2.15959939E-09
   8.79999995E-02  -1.68334091E-09
   8.90000015E-02  -1.08540210E-09
   9.00000036E-02  -3.75374759E-10
   9.09999982E-02   4.31397862E-10
   9.20000002E-02   1.31385780E-09
   9.30000022E-02   2.24553065E-09
   9.39999968E-02   3.19509397E-09
   9.49999988E-02   4.12721635E-09
   9.60000008E-02   5.00366992E-09
   9.70000029E-02   5.78466519E-09
   9.79999974E-02   6.43040110E-09
   9.89999995E-02   6.90275126E-09
  0.100000001       7.16704118E-09
  0.101000004       7.19383708E-09
  0.101999998       6.96067959E-09
  0.103000000       6.45363851E-09
  0.104000002       5.66867353E-09
  0.104999997       4.61264671E-09
  0.105999999       3.30396888E-09
  0.107000001       1.77278714E-09
  0.108000003       6.06852554E-11
  0.108999997      -1.78014314E-09
  0.109999999      -3.68824549E-09
  0.111000001      -5.59476465E-09
  0.112000003      -7.42577377E-09
  0.112999998      -9.10498965E-09
  0.114000000      -1.05568114E-08
  0.115000002      -1.17095587E-08
  0.115999997      -1.24987425E-08
  0.116999999      -1.28703279E-08
  0.118000001      -1.27837119E-08
  0.119000003      -1.22143726E-08
  0.119999997      -1.11559864E-08
  0.120999999      -9.62190239E-09
  0.122000001      -7.64588926E-09
  0.123000003      -5.28200150E-09
  0.123999998      -2.60359490E-09
  0.125000000       2.98575970E-10
  0.126000002       3.31914896E-09
  0.127000004       6.34173958E-09
  0.128000006       9.24325150E-09
  0.128999993       1.18987309E-08
  0.129999995       1.41866288E-08
  0.130999997       1.59942068E-08
  0.131999999       1.72229040E-08
  0.133000001       1.77934076E-08
  0.134000003       1.76501587E-08
  0.135000005       1.67651155E-08
  0.136000007       1.51405093E-08
  0.136999995       1.28104238E-08
  0.137999997       9.84108706E-09
  0.138999999       6.32973052E-09
  0.140000001       2.40204767E-09
  0.141000003      -1.79176329E-09
  0.142000005      -6.08225026E-09
  0.143000007      -1.02871089E-08
  0.143999994      -1.42185126E-08
  0.144999996      -1.76910806E-08
  0.145999998      -2.05301518E-08
  0.147000000      -2.25800854E-08
  0.148000002      -2.37121043E-08
  0.149000004      -2.38314168E-08
  0.150000006      -2.28831549E-08
  0.150999993      -2.08569144E-08
  0.151999995      -1.77894499E-08
  0.152999997      -1.37655309E-08
  0.153999999      -8.91662832E-09
  0.155000001      -3.41740924E-09
  0.156000003       2.51979260E-09
  0.157000005       8.65256045E-09
  0.158000007       1.47176697E-08
  0.158999994       2.04418242E-08
  0.159999996       2.55533479E-08
  0.160999998       2.97944531E-08
  0.162000000       3.29334782E-08
  0.163000003       3.47766367E-08
  0.164000005       3.51785516E-08
  0.165000007       3.40513147E-08
  0.165999994       3.13712825E-08
  0.166999996       2.71833951E-08
  0.167999998       2.16025597E-08
  0.169000000       1.48120574E-08
  0.170000002       7.05868253E-09
  0.171000004      -1.35519485E-09
  0.172000006      -1.00824877E-08
  0.172999993      -1.87448155E-08
  0.173999995      -2.69480100E-08
  0.174999997      -3.42992230E-08
  0.175999999      -4.04246947E-08
  0.177000001      -4.49877540E-08
  0.178000003      -4.77058997E-08
  0.179000005      -4.83664166E-08
  0.180000007      -4.68396628E-08
  0.180999994      -4.30891518E-08
  0.181999996      -3.71781255E-08
  0.182999998      -2.92718880E-08
  0.184000000      -1.96356424E-08
  0.185000002      -8.62766125E-09
  0.186000004       3.31184080E-09
  0.187000006       1.56765108E-08
  0.187999994       2.79130870E-08
  0.188999996       3.94439219E-08
  0.189999998       4.96917885E-08
  0.191000000       5.81059076E-08
  0.192000002       6.41882067E-08
  0.193000004       6.75185419E-08
  0.194000006       6.77778829E-08
  0.194999993       6.47681162E-08
  0.195999995       5.84274531E-08
  0.196999997       4.88408212E-08
  0.197999999       3.62440993E-08
  0.199000001       2.10218332E-08
  0.200000003       3.69863895E-09
  0.201000005      -1.50765924E-08
  0.202000007      -3.45522544E-08
  0.202999994      -5.39015517E-08
  0.203999996      -7.22545508E-08
  0.204999998      -8.87339553E-08
  0.206000000      -1.02492983E-07
  0.207000002      -1.12753661E-07
  0.208000004      -1.18844554E-07
  0.209000006      -1.20235313E-07
  0.209999993      -1.16567165E-07
  0.210999995      -1.07677394E-07
  0.211999997      -9.36167837E-08
  0.213000000      -7.46584448E-08
  0.214000002      -5.12979028E-08
  0.215000004      -2.42433345E-08
  0.216000006       5.60346081E-09
  0.216999993       3.71755142E-08
  0.217999995       6.92773412E-08
  0.218999997       1.00628903E-07
  0.219999999       1.29915307E-07
  0.221000001       1.55840041E-07
  0.222000003       1.77180183E-07
  0.223000005       1.92840815E-07
  0.224000007       2.01906900E-07
  0.224999994       2.03689197E-07
  0.225999996       1.97763725E-07
  0.226999998       1.84000896E-07
  0.228000000       1.62584371E-07
  0.229000002       1.34016986E-07
  0.230000004       9.91140752E-08
  0.231000006       5.89832645E-08
  0.231999993       1.49910502E-08
  0.232999995      -3.12824113E-08
  0.233999997      -7.80995890E-08
  0.234999999      -1.23630528E-07
  0.236000001      -1.66024535E-07
  0.237000003      -2.03485058E-07
  0.238000005      -2.34346118E-07
  0.238999993      -2.57145103E-07
  0.239999995      -2.70691430E-07
  0.240999997      -2.74125483E-07
  0.241999999      -2.66966310E-07
  0.243000001      -2.49145700E-07
  0.244000003      -2.21026170E-07
  0.245000005      -1.83402079E-07
  0.246000007      -1.37482516E-07
  0.246999994      -8.48567652E-08
  0.247999996      -2.74425211E-08
  0.248999998       3.25811556E-08
  0.250000000       9.28542576E-08
  0.250999987       1.50926383E-07
  0.252000004       2.04354393E-07
  0.252999991       2.50803083E-07
  0.254000008       2.88144889E-07
  0.254999995       3.14554597E-07
  0.256000012       3.28594609E-07
  0.256999999       3.29287104E-07
  0.257999986       3.16169917E-07
  0.259000003       2.89332775E-07
  0.259999990       2.49432077E-07
  0.261000007       1.97682766E-07
  0.261999995       1.35827008E-07
  0.263000011       6.60799842E-08
  0.263999999      -8.94572771E-09
  0.264999986      -8.63339835E-08
  0.266000003      -1.62975041E-07
  0.266999990      -2.35686798E-07
  0.268000007      -3.01342681E-07
  0.268999994      -3.57001767E-07
  0.270000011      -4.00034793E-07
  0.270999998      -4.28241805E-07
  0.272000015      -4.39955585E-07
  0.273000002      -4.34126378E-07
  0.273999989      -4.10384331E-07
  0.275000006      -3.69075536E-07
  0.275999993      -3.11270043E-07
  0.277000010      -2.38740910E-07
  0.277999997      -1.53912822E-07
  0.279000014      -5.97840355E-08
  0.280000001       4.01784419E-08
  0.280999988       1.42165405E-07
  0.282000005       2.42169619E-07
  0.282999992       3.36142307E-07
  0.284000009       4.20155487E-07
  0.284999996       4.90564048E-07
  0.286000013       5.44161310E-07
  0.287000000       5.78320339E-07
  0.287999988       5.91116020E-07
  0.289000005       5.81421887E-07
  0.289999992       5.48977368E-07
  0.291000009       4.94421386E-07
  0.291999996       4.19290984E-07
  0.293000013       3.25982739E-07
  0.294000000       2.17679613E-07
  0.294999987       9.82434472E-08
  0.296000004      -2.79228765E-08
  0.296999991      -1.56037430E-07
  0.298000008      -2.81121771E-07
  0.298999995      -3.98194487E-07
  0.300000012      -5.02471096E-07
  0.300999999      -5.89558738E-07
  0.301999986      -6.55641429E-07
  0.303000003      -6.97645135E-07
  0.303999990      -7.13377972E-07
  0.305000007      -7.01636736E-07
  0.305999994      -6.62276989E-07
  0.307000011      -5.96241989E-07
  0.307999998      -5.05549053E-07
  0.308999985      -3.93231261E-07
  0.310000002      -2.63238860E-07
  0.310999990      -1.20301024E-07
  0.312000006       3.02464471E-08
  0.312999994       1.82660713E-07
  0.314000010       3.31011734E-07
  0.314999998       4.69413834E-07
  0.316000015       5.92260164E-07
  0.317000002       6.94449966E-07
  0.317999989       7.71599446E-07
  0.319000006       8.20228934E-07
  0.319999993       8.37915650E-07
  0.321000010       8.23408129E-07
  0.321999997       7.76695117E-07
  0.323000014       6.99026543E-07
  0.324000001       5.92883794E-07
  0.324999988       4.61900981E-07
  0.326000005       3.10738898E-07
  0.326999992       1.44915859E-07
  0.328000009      -2.93978637E-08
  0.328999996      -2.05615024E-07
  0.330000013      -3.76985639E-07
  0.331000000      -5.36862046E-07
  0.331999987      -6.78962010E-07
  0.333000004      -7.97622704E-07
  0.333999991      -8.88030797E-07
  0.335000008      -9.46422745E-07
  0.335999995      -9.70245424E-07
  0.337000012      -9.58269538E-07
  0.338000000      -9.10652261E-07
  0.338999987      -8.28943541E-07
  0.340000004      -7.16038130E-07
  0.340999991      -5.76072580E-07
  0.342000008      -4.14271284E-07
  0.342999995      -2.36747880E-07
  0.344000012      -5.02684330E-08
  0.344999999       1.38012751E-07
  0.345999986       3.20836193E-07
  0.347000003       4.91125718E-07
  0.347999990       6.42272767E-07
  0.349000007       7.68402742E-07
  0.349999994       8.64615743E-07
  0.351000011       9.27185965E-07
  0.351999998       9.53718654E-07
  0.352999985       9.43251962E-07
  0.354000002       8.96300776E-07
  0.354999989       8.14841883E-07
  0.356000006       7.02240072E-07
  0.356999993       5.63114781E-07
  0.358000010       4.03157628E-07
  0.358999997       2.28902735E-07
  0.360000014       4.74634270E-08
  0.361000001      -1.33757140E-07
  0.361999989      -3.07368850E-07
  0.363000005      -4.66296967E-07
  0.363999993      -6.04074501E-07
  0.365000010      -7.15108968E-07
  0.365999997      -7.94915252E-07
  0.367000014      -8.40303244E-07
  0.368000001      -8.49512617E-07
  0.368999988      -8.22287916E-07
  0.370000005      -7.59892430E-07
  0.370999992      -6.65058906E-07
  0.372000009      -5.41877228E-07
  0.372999996      -3.95627069E-07
  0.374000013      -2.32558250E-07
  0.375000000      -5.96314251E-08
  0.375999987       1.15773780E-07
  0.377000004       2.86167932E-07
  0.377999991       4.44267300E-07
  0.379000008       5.83302324E-07
  0.379999995       6.97304472E-07
  0.381000012       7.81361734E-07
  0.381999999       8.31829482E-07
  0.382999986       8.46488660E-07
  0.384000003       8.24645156E-07
  0.384999990       7.67163556E-07
  0.386000007       6.76435036E-07
  0.386999995       5.56281577E-07
  0.388000011       4.11797259E-07
  0.388999999       2.49135269E-07
  0.389999986       7.52481810E-08
  0.391000003      -1.02405885E-07
  0.391999990      -2.76181794E-07
  0.393000007      -4.38574716E-07
  0.393999994      -5.82543066E-07
  0.395000011      -7.01813974E-07
  0.395999998      -7.91157277E-07
  0.397000015      -8.46615819E-07
  0.398000002      -8.65683774E-07
  0.398999989      -8.47422257E-07
  0.400000006      -7.92509582E-07
  0.400999993      -7.03221076E-07
  0.402000010      -5.83342114E-07
  0.402999997      -4.38012592E-07
  0.404000014      -2.73514445E-07
  0.405000001      -9.70083534E-08
  0.405999988       8.37716598E-08
  0.407000005       2.60847543E-07
  0.407999992       4.26341614E-07
  0.409000009       5.72818976E-07
  0.409999996       6.93613288E-07
  0.411000013       7.83122346E-07
  0.412000000       8.37060441E-07
  0.412999988       8.52655887E-07
  0.414000005       8.28785744E-07
  0.414999992       7.66039875E-07
  0.416000009       6.66713220E-07
  0.416999996       5.34722915E-07
  0.418000013       3.75456978E-07
  0.419000000       1.95556964E-07
  0.419999987       2.64512945E-09
  0.421000004      -1.94992680E-07
  0.421999991      -3.88756547E-07
  0.423000008      -5.70097825E-07
  0.423999995      -7.30886313E-07
  0.425000012      -8.63764001E-07
  0.425999999      -9.62467993E-07
  0.426999986      -1.02211038E-06
  0.428000003      -1.03940351E-06
  0.428999990      -1.01281717E-06
  0.430000007      -9.42664656E-07
  0.430999994      -8.31109674E-07
  0.432000011      -6.82096413E-07
  0.432999998      -5.01201953E-07
  0.433999985      -2.95418630E-07
  0.435000002      -7.28753804E-08
  0.435999990       1.57493560E-07
  0.437000006       3.86315207E-07
  0.437999994       6.04166758E-07
  0.439000010       8.01970998E-07
  0.439999998       9.71379336E-07
  0.441000015       1.10512758E-06
  0.442000002       1.19735000E-06
  0.442999989       1.24383678E-06
  0.444000006       1.24222220E-06
  0.444999993       1.19210017E-06
  0.446000010       1.09505504E-06
  0.446999997       9.54610755E-07
  0.448000014       7.76098886E-07
  0.449000001       5.66447852E-07
  0.449999988       3.33905291E-07
  0.451000005       8.77034907E-08
  0.451999992      -1.62319296E-07
  0.453000009      -4.06125338E-07
  0.453999996      -6.33893535E-07
  0.455000013      -8.36430161E-07
  0.456000000      -1.00555337E-06
  0.456999987      -1.13443980E-06
  0.458000004      -1.21791345E-06
  0.458999991      -1.25266865E-06
  0.460000008      -1.23741370E-06
  0.460999995      -1.17293166E-06
  0.462000012      -1.06205289E-06
  0.463000000      -9.09543360E-07
  0.463999987      -7.21908407E-07
  0.465000004      -5.07123787E-07
  0.465999991      -2.74303545E-07
  0.467000008      -3.33183827E-08
  0.467999995       2.05619187E-07
  0.469000012       4.32385804E-07
  0.469999999       6.37376331E-07
  0.470999986       8.11911207E-07
  0.472000003       9.48607237E-07
  0.472999990       1.04169430E-06
  0.474000007       1.08726465E-06
  0.474999994       1.08344284E-06
  0.476000011       1.03047194E-06
  0.476999998       9.30708438E-07
  0.477999985       7.88527018E-07
  0.479000002       6.10138386E-07
  0.479999989       4.03331967E-07
  0.481000006       1.77142965E-07
  0.481999993      -5.85276254E-08
  0.483000010      -2.93336427E-07
  0.483999997      -5.16940474E-07
  0.485000014      -7.19440152E-07
  0.486000001      -8.91809179E-07
  0.486999989      -1.02628496E-06
  0.488000005      -1.11670943E-06
  0.488999993      -1.15880221E-06
  0.490000010      -1.15035471E-06
  0.490999997      -1.09133578E-06
  0.492000014      -9.83906830E-07
  0.493000001      -8.32341016E-07
  0.493999988      -6.42852797E-07
  0.495000005      -4.23343067E-07
  0.495999992      -1.83070966E-07
  0.497000009       6.77350869E-08
  0.497999996       3.18308736E-07
  0.499000013       5.57804526E-07
  0.500000000       7.75761805E-07
  0.500999987       9.62555532E-07
  0.501999974       1.10981478E-06
  0.503000021       1.21078938E-06
  0.504000008       1.26065208E-06
  0.504999995       1.25671852E-06
  0.505999982       1.19858032E-06
  0.507000029       1.08813913E-06
  0.508000016       9.29546616E-07
  0.509000003       7.29044075E-07
  0.509999990       4.94717312E-07
  0.510999978       2.36167139E-07
  0.512000024      -3.58830583E-08
  0.513000011      -3.10031453E-07
  0.513999999      -5.74675084E-07
  0.514999986      -8.18496119E-07
  0.515999973      -1.03094192E-06
  0.517000020      -1.20267521E-06
  0.518000007      -1.32597688E-06
  0.518999994      -1.39508143E-06
  0.519999981      -1.40643749E-06
  0.521000028      -1.35887171E-06
  0.522000015      -1.25365830E-06
  0.523000002      -1.09448581E-06
  0.523999989      -8.87320823E-07
  0.524999976      -6.40178030E-07
  0.526000023      -3.62802780E-07
  0.527000010      -6.62793695E-08
  0.527999997       2.37418263E-07
  0.528999984       5.35916172E-07
  0.529999971       8.16948045E-07
  0.531000018       1.06886137E-06
  0.532000005       1.28110423E-06
  0.532999992       1.44466276E-06
  0.533999979       1.55244265E-06
  0.535000026       1.59956790E-06
  0.536000013       1.58359910E-06
  0.537000000       1.50463711E-06
  0.537999988       1.36533697E-06
  0.538999975       1.17080776E-06
  0.540000021       9.28411907E-07
  0.541000009       6.47479624E-07
  0.541999996       3.38926981E-07
  0.542999983       1.48217527E-08
  0.544000030      -3.12109222E-07
  0.545000017      -6.28994769E-07
  0.546000004      -9.23343009E-07
  0.546999991      -1.18355274E-06
  0.547999978      -1.39938356E-06
  0.549000025      -1.56237638E-06
  0.550000012      -1.66619930E-06
  0.550999999      -1.70690396E-06
  0.551999986      -1.68309020E-06
  0.552999973      -1.59595868E-06
  0.554000020      -1.44926491E-06
  0.555000007      -1.24916107E-06
  0.555999994      -1.00394459E-06
  0.556999981      -7.23716710E-07
  0.558000028      -4.19966767E-07
  0.559000015      -1.05101940E-07
  0.560000002       2.08063966E-07
  0.560999990       5.06833601E-07
  0.561999977       7.79146603E-07
  0.563000023       1.01407250E-06
  0.564000010       1.20225752E-06
  0.564999998       1.33630306E-06
  0.565999985       1.41106648E-06
  0.566999972       1.42386750E-06
  0.568000019       1.37458630E-06
  0.569000006       1.26567068E-06
  0.569999993       1.10202234E-06
  0.570999980       8.90791341E-07
  0.572000027       6.41072006E-07
  0.573000014       3.63525942E-07
  0.574000001       6.99357656E-08
  0.574999988      -2.27286165E-07
  0.575999975      -5.15608406E-07
  0.577000022      -7.82902760E-07
  0.578000009      -1.01794512E-06
  0.578999996      -1.21087555E-06
  0.579999983      -1.35360744E-06
  0.580999970      -1.44015598E-06
  0.582000017      -1.46688512E-06
  0.583000004      -1.43265299E-06
  0.583999991      -1.33885396E-06
  0.584999979      -1.18936202E-06
  0.586000025      -9.90362651E-07
  0.587000012      -7.50099446E-07
  0.588000000      -4.78528648E-07
  0.588999987      -1.86908480E-07
  0.589999974       1.12664580E-07
  0.591000021       4.07756403E-07
  0.592000008       6.86107740E-07
  0.592999995       9.36130562E-07
  0.593999982       1.14739100E-06
  0.595000029       1.31103161E-06
  0.596000016       1.42013107E-06
  0.597000003       1.46998809E-06
  0.597999990       1.45830870E-06
  0.598999977       1.38529742E-06
  0.600000024       1.25364772E-06
  0.601000011       1.06842663E-06
  0.601999998       8.36868594E-07
  0.602999985       5.68072267E-07
  0.603999972       2.72636839E-07
  0.605000019      -3.77804454E-08
  0.606000006      -3.50921255E-07
  0.606999993      -6.54438509E-07
  0.607999980      -9.36390450E-07
  0.609000027      -1.18570870E-06
  0.610000014      -1.39266001E-06
  0.611000001      -1.54921622E-06
  0.611999989      -1.64937887E-06
  0.612999976      -1.68941290E-06
  0.614000022      -1.66798122E-06
  0.615000010      -1.58619343E-06
  0.615999997      -1.44754938E-06
  0.616999984      -1.25778161E-06
  0.617999971      -1.02462741E-06
  0.619000018      -7.57491193E-07
  0.620000005      -4.67074130E-07
  0.620999992      -1.64935258E-07
  0.621999979       1.36979097E-07
  0.623000026       4.26810516E-07
  0.624000013       6.93264724E-07
  0.625000000       9.26054213E-07
  0.625999987       1.11630402E-06
  0.626999974       1.25689246E-06
  0.628000021       1.34272966E-06
  0.629000008       1.37093446E-06
  0.629999995       1.34093921E-06
  0.630999982       1.25448969E-06
  0.632000029       1.11556187E-06
  0.633000016       9.30178146E-07
  0.634000003       7.06151468E-07
  0.634999990       4.52761725E-07
  0.635999978       1.80372140E-07
  0.637000024      -1.00006254E-07
  0.638000011      -3.77137980E-07
  0.638999999      -6.40027793E-07
  0.639999986      -8.78358435E-07
  0.640999973      -1.08288657E-06
  0.642000020      -1.24580743E-06
  0.643000007      -1.36105427E-06
  0.643999994      -1.42451506E-06
  0.644999981      -1.43418856E-06
  0.646000028      -1.39023905E-06
  0.647000015      -1.29496163E-06
  0.648000002      -1.15268642E-06
  0.648999989      -9.69572056E-07
  0.649999976      -7.53346455E-07
  0.651000023      -5.12979398E-07
  0.652000010      -2.58329891E-07
  0.652999997       2.73364248E-10
  0.653999984       2.52441396E-07
  0.654999971       4.88129331E-07
  0.656000018       6.98054123E-07
  0.657000005       8.74031571E-07
  0.657999992       1.00930606E-06
  0.658999979       1.09878920E-06
  0.660000026       1.13926637E-06
  0.661000013       1.12948226E-06
  0.662000000       1.07019173E-06
  0.662999988       9.64092237E-07
  0.663999975       8.15704823E-07
  0.665000021       6.31183923E-07
  0.666000009       4.18059273E-07
  0.666999996       1.84898056E-07
  0.667999983      -5.89971698E-08
  0.669000030      -3.03997126E-07
  0.670000017      -5.40514634E-07
  0.671000004      -7.59369470E-07
  0.671999991      -9.52168477E-07
  0.672999978      -1.11159864E-06
  0.674000025      -1.23172185E-06
  0.675000012      -1.30817148E-06
  0.675999999      -1.33833464E-06
  0.676999986      -1.32140838E-06
  0.677999973      -1.25842564E-06
  0.679000020      -1.15219063E-06
  0.680000007      -1.00716329E-06
  0.680999994      -8.29254304E-07
  0.681999981      -6.25588143E-07
  0.683000028      -4.04220202E-07
  0.684000015      -1.73811472E-07
  0.685000002       5.67153826E-08
  0.685999990       2.78502540E-07
  0.686999977       4.83103406E-07
  0.688000023       6.62814955E-07
  0.689000010       8.10944471E-07
  0.689999998       9.22043569E-07
  0.690999985       9.92119340E-07
  0.691999972       1.01877129E-06
  0.693000019       1.00124373E-06
  0.694000006       9.40431846E-07
  0.694999993       8.38852543E-07
  0.695999980       7.00508338E-07
  0.697000027       5.30716420E-07
  0.698000014       3.35903081E-07
  0.699000001       1.23338182E-07
  0.699999988      -9.91377931E-08
  0.700999975      -3.23428338E-07
  0.702000022      -5.41463180E-07
  0.703000009      -7.45532191E-07
  0.703999996      -9.28529232E-07
  0.704999983      -1.08423501E-06
  0.705999970      -1.20750724E-06
  0.707000017      -1.29448529E-06
  0.708000004      -1.34267850E-06
  0.708999991      -1.35106541E-06
  0.709999979      -1.32008927E-06
  0.711000025      -1.25161284E-06
  0.712000012      -1.14883733E-06
  0.713000000      -1.01613750E-06
  0.713999987      -8.58930889E-07
  0.714999974      -6.83398639E-07
  0.716000021      -4.96257996E-07
  0.717000008      -3.04547797E-07
  0.717999995      -1.15297460E-07
  0.718999982       6.46740261E-08
  0.720000029       2.29062309E-07
  0.721000016       3.72249332E-07
  0.722000003       4.89526428E-07
  0.722999990       5.77260664E-07
  0.723999977       6.32973297E-07
  0.725000024       6.55448275E-07
  0.726000011       6.44735223E-07
  0.726999998       6.02108628E-07
  0.727999985       5.30018440E-07
  0.728999972       4.31988923E-07
  0.730000019       3.12417882E-07
  0.731000006       1.76442924E-07
  0.731999993       2.97216793E-08
  0.732999980      -1.21806551E-07
  0.734000027      -2.72149606E-07
  0.735000014      -4.15454338E-07
  0.736000001      -5.46249794E-07
  0.736999989      -6.59684702E-07
  0.737999976      -7.51636264E-07
  0.739000022      -8.18891124E-07
  0.740000010      -8.59267402E-07
  0.740999997      -8.71638974E-07
  0.741999984      -8.56027157E-07
  0.742999971      -8.13531074E-07
  0.744000018      -7.46311969E-07
  0.745000005      -6.57479120E-07
  0.745999992      -5.50958703E-07
  0.746999979      -4.31372769E-07
  0.748000026      -3.03796924E-07
  0.749000013      -1.73614254E-07
  0.750000000      -4.62980481E-08
  0.750999987       7.28046885E-08
  0.751999974       1.78668856E-07
  0.753000021       2.66830710E-07
  0.754000008       3.33437100E-07
  0.754999995       3.75525644E-07
  0.755999982       3.91041311E-07
  0.757000029       3.78965836E-07
  0.758000016       3.39323890E-07
  0.759000003       2.73175942E-07
  0.759999990       1.82655086E-07
  0.760999978       7.07817378E-08
  0.762000024      -5.85798823E-08
  0.763000011      -2.00872080E-07
  0.763999999      -3.51014165E-07
  0.764999986      -5.03610863E-07
  0.765999973      -6.53077279E-07
  0.767000020      -7.93936522E-07
  0.768000007      -9.20946889E-07
  0.768999994      -1.02935167E-06
  0.769999981      -1.11499435E-06
  0.771000028      -1.17448815E-06
  0.772000015      -1.20537834E-06
  0.773000002      -1.20617051E-06
  0.773999989      -1.17644902E-06
  0.774999976      -1.11684415E-06
  0.776000023      -1.02904039E-06
  0.777000010      -9.15712405E-07
  0.777999997      -7.80436267E-07
  0.778999984      -6.27530085E-07
  0.779999971      -4.61972178E-07
  0.781000018      -2.89196691E-07
  0.782000005      -1.14814164E-07
  0.782999992       5.53984378E-08
  0.783999979       2.15850193E-07
  0.785000026       3.61287903E-07
  0.786000013       4.86945396E-07
  0.787000000       5.88756734E-07
  0.787999988       6.63455694E-07
  0.788999975       7.08719710E-07
  0.790000021       7.23162827E-07
  0.791000009       7.06470530E-07
  0.791999996       6.59395027E-07
  0.792999983       5.83584097E-07
  0.794000030       4.81715915E-07
  0.795000017       3.57309489E-07
  0.796000004       2.14475691E-07
  0.796999991       5.80089861E-08
  0.797999978      -1.07027439E-07
  0.799000025      -2.75334770E-07
  0.800000012      -4.41572467E-07
  0.800999999      -6.00591818E-07
  0.801999986      -7.47585659E-07
  0.802999973      -8.78236563E-07
  0.804000020      -9.88844704E-07
  0.805000007      -1.07648896E-06
  0.805999994      -1.13906401E-06
  0.806999981      -1.17532716E-06
  0.808000028      -1.18492778E-06
  0.809000015      -1.16839692E-06
  0.810000002      -1.12712110E-06
  0.810999990      -1.06315679E-06
  0.811999977      -9.79300239E-07
  0.813000023      -8.78831770E-07
  0.814000010      -7.65441314E-07
  0.814999998      -6.43036117E-07
  0.815999985      -5.15650129E-07
  0.816999972      -3.87257415E-07
  0.818000019      -2.61665150E-07
  0.819000006      -1.42344234E-07
  0.819999993      -3.23484386E-08
  0.820999980       6.57868142E-08
  0.822000027       1.50045409E-07
  0.823000014       2.19017380E-07
  0.824000001       2.71939058E-07
  0.824999988       3.08549915E-07
  0.825999975       3.29228328E-07
  0.827000022       3.34766895E-07
  0.828000009       3.26429017E-07
  0.828999996       3.05719141E-07
  0.829999983       2.74445597E-07
  0.830999970       2.34448436E-07
  0.832000017       1.87660348E-07
  0.833000004       1.35934570E-07
  0.833999991       8.09560561E-08
  0.834999979       2.42544917E-08
  0.836000025      -3.29757803E-08
  0.837000012      -8.97150372E-08
  0.838000000      -1.45291992E-07
  0.838999987      -1.99286333E-07
  0.839999974      -2.51490036E-07
  0.841000021      -3.01981061E-07
  0.842000008      -3.50819533E-07
  0.842999995      -3.98251757E-07
  0.843999982      -4.44481259E-07
  0.845000029      -4.89655463E-07
  0.846000016      -5.33788864E-07
  0.847000003      -5.76693935E-07
  0.847999990      -6.18026547E-07
  0.848999977      -6.57140049E-07
  0.850000024      -6.93146887E-07
  0.851000011      -7.24966242E-07
  0.851999998      -7.51282812E-07
  0.852999985      -7.70621682E-07
  0.853999972      -7.81510778E-07
  0.855000019      -7.82458812E-07
  0.856000006      -7.72087333E-07