   0.00000000       0.00000000    
   1.00000005E-03   0.00000000    
   2.00000009E-03  -2.36291785E-11
   3.00000003E-03  -1.15532278E-10
   4.00000019E-03  -3.35823591E-10
   4.99999989E-03  -7.52053586E-10
   6.00000005E-03  -1.42935452E-09
   7.00000022E-03  -2.41960496E-09
   8.00000038E-03  -3.75057363E-09
   8.99999961E-03  -5.41604983E-09
   9.99999978E-03  -7.36794448E-09
   1.09999999E-02  -9.51127355E-09
   1.20000001E-02  -1.17026966E-08
   1.30000003E-02  -1.37532030E-08
   1.40000004E-02  -1.54350950E-08
   1.49999997E-02  -1.64932477E-08
   1.60000008E-02  -1.66602412E-08
   1.70000009E-02  -1.56746971E-08
   1.79999992E-02  -1.33018005E-08
   1.89999994E-02  -9.35486266E-09
   1.99999996E-02  -3.71649400E-09
   2.09999997E-02   3.64205555E-09
   2.19999999E-02   1.26448549E-08
   2.30000000E-02   2.31000001E-08
   2.40000002E-02   3.46941782E-08
   2.50000004E-02   4.69941419E-08
   2.60000005E-02   5.94556298E-08
   2.70000007E-02   7.14398780E-08
   2.80000009E-02   8.22377899E-08
   2.89999992E-02   9.11004463E-08
   2.99999993E-02   9.72757661E-08
   3.09999995E-02   1.00048609E-07
   3.20000015E-02   9.87836088E-08
   3.29999998E-02   9.29675394E-08
   3.40000018E-02   8.22497199E-08
   3.50000001E-02   6.64772557E-08
   3.59999985E-02   4.57238549E-08
   3.70000005E-02   2.03091588E-08
   3.79999988E-02  -9.19275855E-09
   3.90000008E-02  -4.19567741E-08
   3.99999991E-02  -7.69232642E-08
   4.10000011E-02  -1.12827202E-07
   4.19999994E-02  -1.48240304E-07
   4.30000015E-02  -1.81624074E-07
   4.39999998E-02  -2.11392290E-07
   4.50000018E-02  -2.35980451E-07
   4.60000001E-02  -2.53919524E-07
   4.69999984E-02  -2.63909925E-07
   4.80000004E-02  -2.64893146E-07
   4.89999987E-02  -2.56116266E-07
   5.00000007E-02  -2.37187308E-07
   5.09999990E-02  -2.08116575E-07
   5.20000011E-02  -1.69342584E-07
   5.29999994E-02  -1.21739646E-07
   5.40000014E-02  -6.66060700E-08
   5.49999997E-02  -5.63242786E-09
   5.60000017E-02   5.91496416E-08
   5.70000000E-02   1.25437182E-07
   5.79999983E-02   1.90740707E-07
   5.90000004E-02   2.52482664E-07
   5.99999987E-02   3.08104205E-07
   6.10000007E-02   3.55175615E-07
   6.19999990E-02   3.91507626E-07
   6.30000010E-02   4.15255272E-07
   6.40000030E-02   4.25012303E-07
   6.49999976E-02   4.19889375E-07
   6.59999996E-02   3.99572798E-07
   6.70000017E-02   3.64359806E-07
   6.80000037E-02   3.15168279E-07
   6.89999983E-02   2.53519261E-07
   7.00000003E-02   1.81492069E-07
   7.10000023E-02   1.01652631E-07
   7.19999969E-02   1.69585270E-08
   7.29999989E-02  -6.93574975E-08
   7.40000010E-02  -1.53919117E-07
   7.50000030E-02  -2.33349439E-07
   7.59999976E-02  -3.04417398E-07
   7.69999996E-02  -3.64182767E-07
   7.80000016E-02  -4.10131889E-07
   7.90000036E-02  -4.40297953E-07
   7.99999982E-02  -4.53359831E-07
   8.10000002E-02  -4.48714701E-07
   8.20000023E-02  -4.26519534E-07
   8.29999968E-02  -3.87698378E-07
   8.39999989E-02  -3.33916176E-07
   8.50000009E-02  -2.67516697E-07
   8.60000029E-02  -1.91427830E-07
   8.69999975E-02  -1.09037380E-07
   8.79999995E-02  -2.40446560E-08
   8.90000015E-02   5.97063519E-08
   9.00000036E-02   1.38404914E-07
   9.09999982E-02   2.08454253E-07
   9.20000002E-02   2.66646850E-07
   9.30000022E-02   3.10325419E-07
   9.39999968E-02   3.37522522E-07
   9.49999988E-02   3.47070511E-07
   9.60000008E-02   3.38675505E-07
   9.70000029E-02   3.12952295E-07
   9.79999974E-02   2.71415445E-07
   9.89999995E-02   2.16426315E-07
  0.100000001       1.51097268E-07
  0.101000004       7.91557824E-08
  0.101999998       4.77363882E-09
  0.103000000      -6.76315111E-08
  0.104000002      -1.33614847E-07
  0.104999997      -1.88931381E-07
  0.105999999      -2.29763913E-07
  0.107000001      -2.52938065E-07
  0.108000003      -2.56115726E-07
  0.108999997      -2.37954055E-07
  0.109999999      -1.98226132E-07
  0.111000001      -1.37890069E-07
  0.112000003      -5.91034919E-08
  0.112999998       3.48166012E-08
  0.114000000       1.39494873E-07
  0.115000002       2.49655187E-07
  0.115999997       3.59325583E-07
  0.116999999       4.62092288E-07
  0.118000001       5.51384062E-07
  0.119000003       6.20782259E-07
  0.119999997       6.64338700E-07
  0.120999999       6.76890693E-07
  0.122000001       6.54356711E-07
  0.123000003       5.93999061E-07
  0.123999998       4.94640119E-07
  0.125000000       3.56820948E-07
  0.126000002       1.82890645E-07
  0.127000004      -2.29775878E-08
  0.128000006      -2.54851784E-07
  0.128999993      -5.05185142E-07
  0.129999995      -7.65039829E-07
  0.130999997      -1.02438014E-06
  0.131999999      -1.27242890E-06
  0.133000001      -1.49807590E-06
  0.134000003      -1.69031705E-06
  0.135000005      -1.83871646E-06
  0.136000007      -1.93386359E-06
  0.136999995      -1.96781298E-06
  0.137999997      -1.93448523E-06
  0.138999999      -1.83000975E-06
  0.140000001      -1.65299480E-06
  0.141000003      -1.40471002E-06
  0.142000005      -1.08917152E-06
  0.143000007      -7.13121324E-07
  0.143999994      -2.85897784E-07
  0.144999996       1.80799702E-07
  0.145999998       6.73248451E-07
  0.147000000       1.17613149E-06
  0.148000002       1.67304256E-06
  0.149000004       2.14705165E-06
  0.150000006       2.58131217E-06
  0.150999993       2.95968243E-06
  0.151999995       3.26733766E-06
  0.152999997       3.49135712E-06
  0.153999999       3.62124956E-06
  0.155000001       3.64940865E-06
  0.156000003       3.57146405E-06
  0.157000005       3.38652967E-06
  0.158000007       3.09731581E-06
  0.158999994       2.71012391E-06
  0.159999996       2.23469146E-06
  0.160999998       1.68392114E-06
  0.162000000       1.07347830E-06
  0.163000003       4.21279509E-07
  0.164000005      -2.53105355E-07
  0.165000007      -9.29126202E-07
  0.165999994      -1.58596777E-06
  0.166999996      -2.20328639E-06
  0.167999998      -2.76193123E-06
  0.169000000      -3.24463463E-06
  0.170000002      -3.63663480E-06
  0.171000004      -3.92620632E-06
  0.172000006      -4.10508846E-06
  0.172999993      -4.16877583E-06
  0.173999995      -4.11667952E-06
  0.174999997      -3.95213101E-06
  0.175999999      -3.68225051E-06
  0.177000001      -3.31765750E-06
  0.178000003      -2.87206376E-06
  0.179000005      -2.36173719E-06
  0.180000007      -1.80487837E-06
  0.180999994      -1.22092126E-06
  0.181999996      -6.29789952E-07
  0.182999998      -5.11428730E-08
  0.184000000       4.96368159E-07
  0.185000002       9.95798700E-07
  0.186000004       1.43252839E-06
  0.187000006       1.79479071E-06
  0.187999994       2.07407834E-06
  0.188999996       2.26541374E-06
  0.189999998       2.36747496E-06
  0.191000000       2.38256871E-06
  0.192000002       2.31645618E-06
  0.193000004       2.17803631E-06
  0.194000006       1.97890017E-06
  0.194999993       1.73277408E-06
  0.195999995       1.45488423E-06
  0.196999997       1.16125375E-06
  0.197999999       8.67973938E-07
  0.199000001       5.90478351E-07
  0.200000003       3.42848153E-07
  0.201000005       1.37180464E-07
  0.202000007      -1.69537113E-08
  0.202999994      -1.12939354E-07
  0.203999996      -1.47415037E-07
  0.204999998      -1.20424019E-07
  0.206000000      -3.54138692E-08
  0.207000002       1.00916409E-07
  0.208000004       2.78920425E-07
  0.209000006       4.86439092E-07
  0.209999993       7.09359199E-07
  0.210999995       9.32260150E-07
  0.211999997       1.13913779E-06
  0.213000000       1.31415493E-06
  0.214000002       1.44240471E-06
  0.215000004       1.51064762E-06
  0.216000006       1.50798041E-06
  0.216999993       1.42642546E-06
  0.217999995       1.26140071E-06
  0.218999997       1.01205217E-06
  0.219999999       6.81433164E-07
  0.221000001       2.76521007E-07
  0.222000003      -1.91935158E-07
  0.223000005      -7.09727772E-07
  0.224000007      -1.25966085E-06
  0.224999994      -1.82215433E-06
  0.225999996      -2.37596282E-06
  0.226999998      -2.89898549E-06
  0.228000000      -3.36912535E-06
  0.229000002      -3.76517437E-06
  0.230000004      -4.06768504E-06
  0.231000006      -4.25979806E-06
  0.231999993      -4.32797424E-06
  0.232999995      -4.26263068E-06
  0.233999997      -4.05863148E-06
  0.234999999      -3.71561418E-06
  0.236000001      -3.23814970E-06
  0.237000003      -2.63571246E-06
  0.238000005      -1.92246853E-06
  0.238999993      -1.11688337E-06
  0.239999995      -2.41166987E-07
  0.240999997       6.79432219E-07
  0.241999999       1.61745152E-06
  0.243000001       2.54413021E-06
  0.244000003       3.43038755E-06
  0.245000005       4.24781820E-06
  0.246000007       4.96967596E-06
  0.246999994       5.57180465E-06
  0.247999996       6.03349281E-06
  0.248999998       6.33819627E-06
  0.250000000       6.47413117E-06
  0.250999987       6.43469730E-06
  0.252000004       6.21872641E-06
  0.252999991       5.83052815E-06
  0.254000008       5.27977591E-06
  0.254999995       4.58117120E-06
  0.256000012       3.75396871E-06
  0.256999999       2.82133169E-06
  0.257999986       1.80956170E-06
  0.259000003       7.47234651E-07
  0.259999990      -3.35742101E-07
  0.261000007      -1.40909594E-06
  0.261999995      -2.44316243E-06
  0.263000011      -3.40981842E-06
  0.263999999      -4.28334897E-06
  0.264999986      -5.04122272E-06
  0.266000003      -5.66473273E-06
  0.266999990      -6.13951033E-06
  0.268000007      -6.45586897E-06
  0.268999994      -6.60898922E-06
  0.270000011      -6.59892976E-06
  0.270999998      -6.43048770E-06
  0.272000015      -6.11287942E-06
  0.273000002      -5.65931168E-06
  0.273999989      -5.08641642E-06
  0.275000006      -4.41359498E-06
  0.275999993      -3.66228755E-06
  0.277000010      -2.85521492E-06
  0.277999997      -2.01560033E-06
  0.279000014      -1.16641024E-06
  0.280000001      -3.29638226E-07
  0.280999988       4.74340538E-07
  0.282000005       1.22732922E-06
  0.282999992       1.91376307E-06
  0.284000009       2.52104701E-06
  0.284999996       3.03976844E-06
  0.286000013       3.46378761E-06
  0.287000000       3.79019934E-06
  0.287999988       4.01919215E-06
  0.289000005       4.15378872E-06
  0.289999992       4.19951311E-06
  0.291000009       4.16398143E-06
  0.291999996       4.05644369E-06
  0.293000013       3.88729632E-06
  0.294000000       3.66758786E-06
  0.294999987       3.40854376E-06
  0.296000004       3.12110865E-06
  0.296999991       2.81554730E-06
  0.298000008       2.50110475E-06
  0.298999995       2.18573473E-06
  0.300000012       1.87591365E-06
  0.300999999       1.57653119E-06
  0.301999986       1.29085913E-06
  0.303000003       1.02060926E-06
  0.303999990       7.66052381E-07
  0.305000007       5.26201575E-07
  0.305999994       2.99045212E-07
  0.307000011       8.18167010E-08
  0.307999998      -1.28717389E-07
  0.308999985      -3.35958788E-07
  0.310000002      -5.43180988E-07
  0.310999990      -7.53266022E-07
  0.312000006      -9.68455083E-07
  0.312999994      -1.19015453E-06
  0.314000010      -1.41878559E-06
  0.314999998      -1.65368283E-06
  0.316000015      -1.89306081E-06
  0.317000002      -2.13401836E-06
  0.317999989      -2.37262543E-06
  0.319000006      -2.60402612E-06
  0.319999993      -2.82261408E-06
  0.321000010      -3.02222816E-06
  0.321999997      -3.19637456E-06
  0.323000014      -3.33848061E-06
  0.324000001      -3.44213436E-06
  0.324999988      -3.50134815E-06
  0.326000005      -3.51078006E-06
  0.326999992      -3.46596562E-06
  0.328000009      -3.36350831E-06
  0.328999996      -3.20123354E-06
  0.330000013      -2.97831730E-06
  0.331000000      -2.69536940E-06
  0.331999987      -2.35446919E-06
  0.333000004      -1.95917278E-06
  0.333999991      -1.51447239E-06
  0.335000008      -1.02671117E-06
  0.335999995      -5.03472847E-07
  0.337000012       4.65567638E-08
  0.338000000       6.13770624E-07
  0.338999987       1.18783510E-06
  0.340000004       1.75789535E-06
  0.340999991       2.31280774E-06
  0.342000008       2.84137082E-06
  0.342999995       3.33256412E-06
  0.344000012       3.77578249E-06
  0.344999999       4.16107287E-06
  0.345999986       4.47934872E-06
  0.347000003       4.72261490E-06
  0.347999990       4.88415299E-06
  0.349000007       4.95870472E-06
  0.349999994       4.94261212E-06
  0.351000011       4.83396570E-06
  0.351999998       4.63268043E-06
  0.352999985       4.34057301E-06
  0.354000002       3.96138239E-06
  0.354999989       3.50076721E-06
  0.356000006       2.96624421E-06
  0.356999993       2.36710321E-06
  0.358000010       1.71426291E-06
  0.358999997       1.02009233E-06
  0.360000014       2.98180481E-07
  0.361000001      -4.36919350E-07
  0.361999989      -1.17000195E-06
  0.363000005      -1.88553088E-06
  0.363999993      -2.56801059E-06
  0.365000010      -3.20233698E-06
  0.365999997      -3.77420247E-06
  0.367000014      -4.27046007E-06
  0.368000001      -4.67948894E-06
  0.368999988      -4.99153111E-06
  0.370000005      -5.19899686E-06
  0.370999992      -5.29670478E-06
  0.372000009      -5.28209330E-06
  0.372999996      -5.15532111E-06
  0.374000013      -4.91934361E-06
  0.375000000      -4.57986880E-06
  0.375999987      -4.14524538E-06
  0.377000004      -3.62627338E-06
  0.377999991      -3.03593356E-06
  0.379000008      -2.38903635E-06
  0.379999995      -1.70181875E-06
  0.381000012      -9.91481670E-07
  0.381999999      -2.75693168E-07
  0.382999986       4.27933514E-07
  0.384000003       1.10235931E-06
  0.384999990       1.73163437E-06
  0.386000007       2.30136607E-06
  0.386999995       2.79915912E-06
  0.388000011       3.21497009E-06
  0.388999999       3.54138683E-06
  0.389999986       3.77382275E-06
  0.391000003       3.91061121E-06
  0.391999990       3.95299003E-06
  0.393000007       3.90498280E-06
  0.393999994       3.77319452E-06
  0.395000011       3.56648593E-06
  0.395999998       3.29561180E-06
  0.397000015       2.97273891E-06
  0.398000002       2.61095897E-06
  0.398999989       2.22376912E-06
  0.400000006       1.82452015E-06
  0.400999993       1.42591045E-06
  0.402000010       1.03950549E-06
  0.402999997       6.75308627E-07
  0.404000014       3.41433804E-07
  0.405000001       4.38167973E-08
  0.405999988      -2.13893173E-07
  0.407000005      -4.30418368E-07
  0.407999992      -6.06762512E-07
  0.409000009      -7.46048840E-07
  0.409999996      -8.53236145E-07
  0.411000013      -9.34771322E-07
  0.412000000      -9.98145538E-07
  0.412999988      -1.05143283E-06
  0.414000005      -1.10274459E-06
  0.414999992      -1.15975365E-06
  0.416000009      -1.22917334E-06
  0.416999996      -1.31632680E-06
  0.418000013      -1.42474664E-06
  0.419000000      -1.55590453E-06
  0.419999987      -1.70899148E-06
  0.421000004      -1.88087836E-06
  0.421999991      -2.06613231E-06
  0.423000008      -2.25720714E-06
  0.423999995      -2.44472699E-06
  0.425000012      -2.61787477E-06
  0.425999999      -2.76489823E-06
  0.426999986      -2.87365128E-06
  0.428000003      -2.93221797E-06
  0.428999990      -2.92954110E-06
  0.430000007      -2.85604210E-06
  0.430999994      -2.70420151E-06
  0.432000011      -2.46907530E-06
  0.432999998      -2.14872239E-06
  0.433999985      -1.74451998E-06
  0.435000002      -1.26131795E-06
  0.435999990      -7.07489448E-07
  0.437000006      -9.47902379E-08
  0.437999994       5.61913282E-07
  0.439000010       1.24508983E-06
  0.439999998       1.93506685E-06
  0.441000015       2.61074251E-06
  0.442000002       3.25032943E-06
  0.442999989       3.83217275E-06
  0.444000006       4.33559853E-06
  0.444999993       4.74176250E-06
  0.446000010       5.03440469E-06
  0.446999997       5.20060803E-06
  0.448000014       5.23133167E-06
  0.449000001       5.12192992E-06
  0.449999988       4.87238685E-06
  0.451000005       4.48746732E-06
  0.451999992       3.97662507E-06
  0.453000009       3.35373511E-06
  0.453999996       2.63667675E-06
  0.455000013       1.84667078E-06
  0.456000000       1.00759030E-06
  0.456999987       1.45049995E-07
  0.458000004      -7.14533599E-07
  0.458999991      -1.54491465E-06
  0.460000008      -2.32101615E-06
  0.460999995      -3.01988098E-06
  0.462000012      -3.62153082E-06
  0.463000000      -4.10970870E-06
  0.463999987      -4.47247294E-06
  0.465000004      -4.70264558E-06
  0.465999991      -4.79798291E-06
  0.467000008      -4.76123932E-06
  0.467999995      -4.59994772E-06
  0.469000012      -4.32602928E-06
  0.469999999      -3.95522875E-06
  0.470999986      -3.50636878E-06
  0.472000003      -3.00045508E-06
  0.472999990      -2.45977731E-06
  0.474000007      -1.90686524E-06
  0.474999994      -1.36347614E-06
  0.476000011      -8.49670528E-07
  0.476999998      -3.82895308E-07
  0.477999985       2.27355468E-08
  0.479000002       3.57081262E-07
  0.479999989       6.14289434E-07
  0.481000006       7.93073070E-07
  0.481999993       8.96616825E-07
  0.483000010       9.32341834E-07
  0.483999997       9.11467964E-07
  0.485000014       8.48317995E-07
  0.486000001       7.59550801E-07
  0.486999989       6.63194157E-07
  0.488000005       5.77626963E-07
  0.488999993       5.20531671E-07
  0.490000010       5.07844561E-07
  0.490999997       5.52829306E-07
  0.492000014       6.65151163E-07
  0.493000001       8.50259369E-07
  0.493999988       1.10884764E-06
  0.495000005       1.43658167E-06
  0.495999992       1.82408439E-06
  0.497000009       2.25717304E-06
  0.497999996       2.71734802E-06
  0.499000013       3.18244929E-06
  0.500000000       3.62765672E-06
  0.500999987       4.02653541E-06
  0.501999974       4.35228776E-06
  0.503000021       4.57904298E-06
  0.504000008       4.68317967E-06
  0.504999995       4.64458026E-06
  0.505999982       4.44782199E-06
  0.507000029       4.08315964E-06
  0.508000016       3.54739586E-06
  0.509000003       2.84432554E-06
  0.509999990       1.98506018E-06
  0.510999978       9.87942144E-07
  0.512000024      -1.21788673E-07
  0.513000011      -1.31272031E-06
  0.513999999      -2.54823954E-06
  0.514999986      -3.78777304E-06
  0.515999973      -4.98826012E-06
  0.517000020      -6.10575034E-06
  0.518000007      -7.09713231E-06
  0.518999994      -7.92192350E-06
  0.519999981      -8.54392965E-06
  0.521000028      -8.93287051E-06
  0.522000015      -9.06574132E-06
  0.523000002      -8.92806111E-06
  0.523999989      -8.51456116E-06
  0.524999976      -7.82986899E-06
  0.526000023      -6.88847513E-06
  0.527000010      -5.71457076E-06
  0.527999997      -4.34131562E-06
  0.528999984      -2.80985046E-06
  0.529999971      -1.16790079E-06
  0.531000018       5.31901549E-07
  0.532000005       2.23385700E-06
  0.532999992       3.88129320E-06
  0.533999979       5.41867621E-06
  0.535000026       6.79373625E-06
  0.536000013       7.95948745E-06
  0.537000000       8.87602710E-06
  0.537999988       9.51217862E-06
  0.538999975       9.84678172E-06
  0.540000021       9.86948908E-06
  0.541000009       9.58129294E-06
  0.541999996       8.99457791E-06
  0.542999983       8.13264887E-06
  0.544000030       7.02886473E-06
  0.545000017       5.72543695E-06
  0.546000004       4.27175610E-06
  0.546999991       2.72242664E-06
  0.547999978       1.13524538E-06
  0.549000025      -4.31206246E-07
  0.550000012      -1.91979530E-06
  0.550999999      -3.27708904E-06
  0.551999986      -4.45558771E-06
  0.552999973      -5.41545387E-06
  0.554000020      -6.12624081E-06
  0.555000007      -6.56791553E-06
  0.555999994      -6.73176100E-06
  0.556999981      -6.62066668E-06
  0.558000028      -6.24877111E-06
  0.559000015      -5.64099673E-06
  0.560000002      -4.83184522E-06
  0.560999990      -3.86392367E-06
  0.561999977      -2.78607968E-06
  0.563000023      -1.65124220E-06
  0.564000010      -5.14118767E-07
  0.564999998       5.71106284E-07
  0.565999985       1.55320231E-06
  0.566999972       2.38616099E-06
  0.568000019       3.03113279E-06
  0.569000006       3.45824378E-06
  0.569999993       3.64786729E-06
  0.570999980       3.59157661E-06
  0.572000027       3.29259228E-06
  0.573000014       2.76560468E-06
  0.574000001       2.03634067E-06
  0.574999988       1.14036254E-06
  0.575999975       1.21673438E-07
  0.577000022      -9.69231223E-07
  0.578000009      -2.07743369E-06
  0.578999996      -3.14619388E-06
  0.579999983      -4.11922338E-06
  0.580999970      -4.94333517E-06
  0.582000017      -5.57074327E-06
  0.583000004      -5.96135942E-06
  0.583999991      -6.08467508E-06
  0.584999979      -5.92120705E-06
  0.586000025      -5.46359070E-06
  0.587000012      -4.71719386E-06
  0.588000000      -3.69998520E-06
  0.588999987      -2.44221246E-06
  0.589999974      -9.85198426E-07
  0.591000021       6.20031244E-07
  0.592000008       2.31488752E-06
  0.592999995       4.03527838E-06
  0.593999982       5.71436431E-06
  0.595000029       7.28509303E-06
  0.596000016       8.68311599E-06
  0.597000003       9.84928101E-06
  0.597999990       1.07321985E-05
  0.598999977       1.12904663E-05
  0.600000024       1.14943859E-05
  0.601000011       1.13274291E-05
  0.601999998       1.07869546E-05
  0.602999985       9.88452848E-06
  0.603999972       8.64568574E-06
  0.605000019       7.10894710E-06
  0.606000006       5.32459080E-06
  0.606999993       3.35256868E-06
  0.607999980       1.26041721E-06
  0.609000027      -8.79407821E-07
  0.610000014      -2.99228600E-06
  0.611000001      -5.00436408E-06
  0.611999989      -6.84530642E-06
  0.612999976      -8.45122850E-06
  0.614000022      -9.76702631E-06
  0.615000010      -1.07483420E-05
  0.615999997      -1.13636361E-05
  0.616999984      -1.15949861E-05
  0.617999971      -1.14388977E-05
  0.619000018      -1.09063749E-05
  0.620000005      -1.00222296E-05
  0.620999992      -8.82408312E-06
  0.621999979      -7.36084394E-06
  0.623000026      -5.69054055E-06
  0.624000013      -3.87803266E-06
  0.625000000      -1.99215947E-06
  0.625999987      -1.03195312E-07
  0.626999974       1.72003126E-06
  0.628000021       3.41302029E-06
  0.629000008       4.91792525E-06
  0.629999995       6.18598597E-06
  0.630999982       7.17917374E-06
  0.632000029       7.87166573E-06
  0.633000016       8.25060488E-06
  0.634000003       8.31641864E-06
  0.634999990       8.08256300E-06
  0.635999978       7.57457201E-06
  0.637000024       6.82888140E-06
  0.638000011       5.89094361E-06
  0.638999999       4.81313282E-06
  0.639999986       3.65222672E-06
  0.640999973       2.46700483E-06
  0.642000020       1.31537195E-06
  0.643000007       2.52093741E-07
  0.643999994      -6.73956265E-07
  0.644999981      -1.42154374E-06
  0.646000028      -1.95924849E-06
  0.647000015      -2.26630323E-06
  0.648000002      -2.33388437E-06
  0.648999989      -2.16500780E-06
  0.649999976      -1.77453751E-06
  0.651000023      -1.18828757E-06
  0.652000010      -4.41712501E-07
  0.652999997       4.21768760E-07
  0.653999984       1.35274695E-06
  0.654999971       2.29827356E-06
  0.656000018       3.20427807E-06
  0.657000005       4.01822172E-06
  0.657999992       4.69146562E-06
  0.658999979       5.18160323E-06
  0.660000026       5.45460944E-06
  0.661000013       5.48624712E-06
  0.662000000       5.26367194E-06
  0.662999988       4.78582024E-06
  0.663999975       4.06402523E-06
  0.665000021       3.12129691E-06
  0.666000009       1.99161877E-06
  0.666999996       7.18618764E-07
  0.667999983      -6.46106287E-07
  0.669000030      -2.04536559E-06
  0.670000017      -3.41866871E-06
  0.671000004      -4.70487521E-06
  0.671999991      -5.84473764E-06
  0.672999978      -6.78344395E-06
  0.674000025      -7.47327840E-06
  0.675000012      -7.87557474E-06
  0.675999999      -7.96252789E-06
  0.676999986      -7.71859050E-06
  0.677999973      -7.14113139E-06
  0.679000020      -6.24104405E-06
  0.680000007      -5.04231866E-06
  0.680999994      -3.58107809E-06
  0.681999981      -1.90463436E-06
  0.683000028      -6.93843774E-08
  0.684000015       1.86117506E-06
  0.685000002       3.81905329E-06
  0.685999990       5.73423131E-06
  0.686999977       7.53742506E-06
  0.688000023       9.16313093E-06
  0.689000010       1.05518848E-05
  0.689999998       1.16526471E-05
  0.690999985       1.24247845E-05
  0.691999972       1.28400816E-05
  0.693000019       1.28831944E-05
  0.694000006       1.25525848E-05
  0.694999993       1.18604657E-05
  0.695999980       1.08322156E-05
  0.697000027       9.50569665E-06
  0.698000014       7.92904393E-06
  0.699000001       6.15945646E-06
  0.699999988       4.26046563E-06
  0.700999975       2.29945636E-06
  0.702000022       3.45346876E-07
  0.703000009      -1.53449378E-06
  0.703999996      -3.27626572E-06
  0.704999983      -4.82284395E-06
  0.705999970      -6.12508438E-06
  0.707000017      -7.14403450E-06
  0.708000004      -7.85235989E-06
  0.708999991      -8.23457231E-06
  0.709999979      -8.28778775E-06
  0.711000025      -8.02154682E-06
  0.712000012      -7.45667194E-06
  0.713000000      -6.62472212E-06
  0.713999987      -5.56585610E-06
  0.714999974      -4.32729075E-06
  0.716000021      -2.96133749E-06
  0.717000008      -1.52253438E-06
  0.717999995      -6.59906263E-08
  0.718999982       1.35559060E-06
  0.720000029       2.69303132E-06
  0.721000016       3.90375317E-06
  0.722000003       4.95236236E-06
  0.722999990       5.81246559E-06
  0.723999977       6.46713761E-06
  0.725000024       6.90926572E-06
  0.726000011       7.14198450E-06
  0.726999998       7.17707189E-06
  0.727999985       7.03508113E-06
  0.728999972       6.74325020E-06
  0.730000019       6.33450964E-06
  0.731000006       5.84530926E-06
  0.731999993       5.31389378E-06
  0.732999980       4.77819367E-06
  0.734000027       4.27417172E-06
  0.735000014       3.83378119E-06
  0.736000001       3.48371259E-06
  0.736999989       3.24394387E-06
  0.737999976       3.12699058E-06
  0.739000022       3.13730311E-06
  0.740000010       3.27103135E-06
  0.740999997       3.51671247E-06
  0.741999984       3.85574367E-06
  0.742999971       4.26274391E-06
  0.744000018       4.70802206E-06
  0.745000005       5.15849706E-06
  0.745999992       5.57910653E-06
  0.746999979       5.93536242E-06
  0.748000026       6.19464709E-06
  0.749000013       6.32798765E-06
  0.750000000       6.31152216E-06
  0.750999987       6.12826261E-06
  0.751999974       5.76857838E-06
  0.753000021       5.23108110E-06
  0.754000008       4.52311860E-06
  0.754999995       3.66023119E-06
  0.755999982       2.66603433E-06
  0.757000029       1.57123122E-06
  0.758000016       4.12412504E-07
  0.759000003      -7.69262499E-07
  0.759999990      -1.92989387E-06
  0.760999978      -3.02452509E-06
  0.762000024      -4.00918771E-06
  0.763000011      -4.84266548E-06
  0.763999999      -5.48815342E-06
  0.764999986      -5.91497519E-06
  0.765999973      -6.09974404E-06
  0.767000020      -6.02772525E-06
  0.768000007      -5.69324402E-06
  0.768999994      -5.09996244E-06
  0.769999981      -4.26104361E-06
  0.771000028      -3.19851256E-06
  0.772000015      -1.94243125E-06
  0.773000002      -5.29912484E-07
  0.773999989       9.96612471E-07
  0.774999976       2.59053763E-06
  0.776000023       4.20344986E-06
  0.777000010       5.78654362E-06
  0.777999997       7.29274370E-06
  0.778999984       8.67818108E-06
  0.779999971       9.90379976E-06
  0.781000018       1.09373877E-05
  0.782000005       1.17537438E-05
  0.782999992       1.23355940E-05
  0.783999979       1.26747191E-05
  0.785000026       1.27712692E-05
  0.786000013       1.26338691E-05
  0.787000000       1.22790880E-05
  0.787999988       1.17297068E-05
  0.788999975       1.10146502E-05
  0.790000021       1.01668311E-05
  0.791000009       9.22201252E-06
  0.791999996       8.21705635E-06
  0.792999983       7.18838146E-06
  0.794000030       6.17054366E-06
  0.795000017       5.19464402E-06
  0.796000004       4.28771864E-06
  0.796999991       3.47141258E-06
  0.797999978       2.76107494E-06
  0.799000025       2.16624380E-06
  0.800000012       1.68993131E-06
  0.800999999       1.32926880E-06
  0.801999986       1.07590631E-06
  0.802999973       9.17087505E-07
  0.804000020       8.36012532E-07
  0.805000007       8.14012537E-07
  0.805999994       8.30762531E-07
  0.806999981       8.66168762E-07
  0.808000028       9.01650026E-07
  0.809000015       9.20825016E-07
  0.810000002       9.10787492E-07
  0.810999990       8.63006278E-07
  0.811999977       7.73449983E-07
  0.813000023       6.43168732E-07
  0.814000010       4.78318782E-07
  0.814999998       2.89493755E-07
  0.815999985       9.14499978E-08
  0.816999972      -9.76812515E-08
  0.818000019      -2.57200014E-07
  0.819000006      -3.65712509E-07
  0.819999993      -4.01443742E-07
  0.820999980      -3.43806249E-07
  0.822000027      -1.75362501E-07
  0.823000014       1.18631249E-07
  0.824000001       5.47062484E-07
  0.824999988       1.11436248E-06
  0.825999975       1.81832502E-06
  0.827000022       2.65125618E-06
  0.828000009       3.59820638E-06
  0.828999996       4.63876268E-06
  0.829999983       5.74720616E-06
  0.830999970       6.89276885E-06
  0.832000017       8.04213141E-06
  0.833000004       9.15895635E-06
  0.833999991       1.02065442E-05
  0.834999979       1.11487880E-05
  0.836000025       1.19516317E-05
  0.837000012       1.25844499E-05
  0.838000000       1.30219942E-05
  0.838999987       1.32445812E-05
  0.839999974       1.32397627E-05
  0.841000021       1.30018998E-05
  0.842000008       1.25341630E-05
  0.842999995       1.18465123E-05
  0.843999982       1.09576622E-05
  0.845000029       9.89235014E-06
  0.846000016       8.68201278E-06
  0.847000003       7.36251877E-06
  0.847999990       5.97381904E-06
  0.848999977       4.55761256E-06
  0.850000024       3.15684383E-06
  0.851000011       1.81266876E-06
  0.851999998       5.64575032E-07
  0.852999985      -5.52250015E-07
  0.853999972      -1.50748122E-06
  0.855000019      -2.27751889E-06
  0.856000006      -2.84486873E-06