   0.00000000       0.00000000    
   1.00000005E-03   0.00000000    
   2.00000009E-03   0.00000000    
   3.00000003E-03   0.00000000    
   4.00000019E-03   0.00000000    
   4.99999989E-03   0.00000000    
   6.00000005E-03   0.00000000    
   7.00000022E-03   0.00000000    
   8.00000038E-03   0.00000000    
   8.99999961E-03   0.00000000    
   9.99999978E-03   0.00000000    
   1.09999999E-02   0.00000000    
   1.20000001E-02   0.00000000    
   1.30000003E-02   0.00000000    
   1.40000004E-02   0.00000000    
   1.49999997E-02   0.00000000    
   1.60000008E-02   0.00000000    
   1.70000009E-02   0.00000000    
   1.79999992E-02   0.00000000    
   1.89999994E-02  -1.96964438E-38
   1.99999996E-02  -9.98775368E-38
   2.09999997E-02  -2.92880078E-37
   2.19999999E-02  -7.19732944E-37
   2.30000000E-02  -1.60733463E-36
   2.40000002E-02  -3.34442707E-36
   2.50000004E-02  -6.52588058E-36
   2.60000005E-02  -1.19492158E-35
   2.70000007E-02  -2.04052977E-35
   2.80000009E-02  -3.20114232E-35
   2.89999992E-02  -4.45828589E-35
   2.99999993E-02  -5.01605939E-35
   3.09999995E-02  -2.82270890E-35
   3.20000015E-02   6.67220581E-35
   3.29999998E-02   3.26798656E-34
   3.40000018E-02   9.26720165E-34
   3.50000001E-02   2.18147103E-33
   3.59999985E-02   4.63546646E-33
   3.70000005E-02   9.19596871E-33
   3.79999988E-02   1.73265237E-32
   3.90000008E-02   3.13189487E-32
   3.99999991E-02   5.46641666E-32
   4.10000011E-02   9.25421270E-32
   4.19999994E-02   1.52447805E-31
   4.30000015E-02   2.44962255E-31
   4.39999998E-02   3.84663435E-31
   4.50000018E-02   5.91147928E-31
   4.60000001E-02   8.90101061E-31
   4.69999984E-02   1.31430716E-30
   4.80000004E-02   1.90443006E-30
   4.89999987E-02   2.70932358E-30
   5.00000007E-02   3.78554132E-30
   5.09999990E-02   5.19562974E-30
   5.20000011E-02   7.00468545E-30
   5.29999994E-02   9.27458347E-30
   5.40000014E-02   1.20552201E-29
   5.49999997E-02   1.53720987E-29
   5.60000017E-02   1.92096601E-29
   5.70000000E-02   2.34898739E-29
   5.79999983E-02   2.80459245E-29
   5.90000004E-02   3.25912124E-29
   5.99999987E-02   3.66845388E-29
   6.10000007E-02   3.96930821E-29
   6.19999990E-02   4.07558043E-29
   6.30000010E-02   3.87510797E-29
   6.40000030E-02   3.22736567E-29
   6.49999976E-02   1.96273823E-29
   6.59999996E-02  -1.15847959E-30
   6.70000017E-02  -3.22804606E-29
   6.80000037E-02  -7.60699958E-29
   6.89999983E-02  -1.34850678E-28
   7.00000003E-02  -2.10734629E-28
   7.10000023E-02  -3.05351065E-28
   7.19999969E-02  -4.19503268E-28
   7.29999989E-02  -5.52755472E-28
   7.40000010E-02  -7.02957882E-28
   7.50000030E-02  -8.65727177E-28
   7.59999976E-02  -1.03391007E-27
   7.69999996E-02  -1.19707148E-27
   7.80000016E-02  -1.34105959E-27
   7.90000036E-02  -1.44771701E-27
   7.99999982E-02  -1.49481784E-27
   8.10000002E-02  -1.45632390E-27
   8.20000023E-02  -1.30305743E-27
   8.29999968E-02  -1.00389156E-27
   8.39999989E-02  -5.27551693E-28
   8.50000009E-02   1.54896455E-28
   8.60000029E-02   1.06682469E-27
   8.69999975E-02   2.22208366E-27
   8.79999995E-02   3.62036234E-27
   8.90000015E-02   5.24199959E-27
   9.00000036E-02   7.04246175E-27
   9.09999982E-02   8.94681819E-27
   9.20000002E-02   1.08446434E-26
   9.30000022E-02   1.25858967E-26
   9.39999968E-02   1.39784365E-26
   9.49999988E-02   1.47879280E-26
   9.60000008E-02   1.47409553E-26
   9.70000029E-02   1.35321893E-26
   9.79999974E-02   1.08364220E-26
   9.89999995E-02   6.32619376E-27
  0.100000001      -3.04475754E-28
  0.101000004      -9.30998310E-27
  0.101999998      -2.08568214E-26
  0.103000000      -3.49816671E-26
  0.104000002      -5.15451299E-26
  0.104999997      -7.01830750E-26
  0.105999999      -9.02582231E-26
  0.107000001      -1.10815519E-25
  0.108000003      -1.30545559E-25
  0.108999997      -1.47761055E-25
  0.109999999      -1.60391939E-25
  0.111000001      -1.66005005E-25
  0.112000003      -1.61854216E-25
  0.112999998      -1.44967083E-25
  0.114000000      -1.12272286E-25
  0.115000002      -6.07717672E-26
  0.115999997       1.22410343E-26
  0.116999999       1.08917964E-25
  0.118000001       2.30552340E-25
  0.119000003       3.77242677E-25
  0.119999997       5.47536423E-25
  0.120999999       7.38071131E-25
  0.122000001       9.43234871E-25
  0.123000003       1.15487284E-24
  0.123999998       1.36207002E-24
  0.125000000       1.55104599E-24
  0.126000002       1.70519522E-24
  0.127000004       1.80531094E-24
  0.128000006       1.83002674E-24
  0.128999993       1.75650353E-24
  0.129999995       1.56138529E-24
  0.130999997       1.22203419E-24
  0.131999999       7.18040424E-25
  0.133000001       3.29872849E-26
  0.134000003      -8.43571170E-25
  0.135000005      -1.91398363E-24
  0.136000007      -3.17031562E-24
  0.136999995      -4.59221729E-24
  0.137999997      -6.14498230E-24
  0.138999999      -7.77795869E-24
  0.140000001      -9.42348467E-24
  0.141000003      -1.09965380E-23
  0.142000005      -1.23952831E-23
  0.143000007      -1.35026955E-23
  0.143999994      -1.41894257E-23
  0.144999996      -1.43180116E-23
  0.145999998      -1.37485156E-23
  0.147000000      -1.23455935E-23
  0.148000002      -9.98691280E-24
  0.149000004      -6.57274449E-24
  0.150000006      -2.03645902E-24
  0.150999993       3.64447309E-24
  0.151999995       1.04374715E-23
  0.152999997       1.82444468E-23
  0.153999999       2.68927258E-23
  0.155000001       3.61280813E-23
  0.156000003       4.56107258E-23
  0.157000005       5.49151004E-23
  0.158000007       6.35343209E-23
  0.158999994       7.08899566E-23
  0.159999996       7.63477507E-23
  0.160999998       7.92397211E-23
  0.162000000       7.88926791E-23
  0.163000003       7.46629268E-23
  0.164000005       6.59765459E-23
  0.165000007       5.23742236E-23
  0.165999994       3.35590327E-23
  0.166999996       9.44519570E-24
  0.167999998      -1.97946784E-23
  0.169000000      -5.36867430E-23
  0.170000002      -9.14207117E-23
  0.171000004      -1.31825801E-22
  0.172000006      -1.73361259E-22
  0.172999993      -2.14125223E-22
  0.173999995      -2.51884701E-22
  0.174999997      -2.84129573E-22
  0.175999999      -3.08152445E-22
  0.177000001      -3.21155044E-22
  0.178000003      -3.20380774E-22
  0.179000005      -3.03271277E-22
  0.180000007      -2.67643516E-22
  0.180999994      -2.11881653E-22
  0.181999996      -1.35136228E-22
  0.182999998      -3.75215316E-23
  0.184000000       7.97001256E-23
  0.185000002       2.13959550E-22
  0.186000004       3.61260985E-22
  0.187000006       5.16115516E-22
  0.187999994       6.71541865E-22
  0.188999996       8.19147661E-22
  0.189999998       9.49302339E-22
  0.191000000       1.05141108E-21
  0.192000002       1.11429438E-21
  0.193000004       1.12667412E-21
  0.194000006       1.07776111E-21
  0.194999993       9.57932604E-22
  0.195999995       7.59482362E-22
  0.196999997       4.77417004E-22
  0.197999999       1.10266813E-22
  0.199000001      -3.39129056E-22
  0.200000003      -8.62908413E-22
  0.201000005      -1.44759364E-21
  0.202000007      -2.07367556E-21
  0.202999994      -2.71542857E-21
  0.203999996      -3.34100996E-21
  0.204999998      -3.91289468E-21
  0.206000000      -4.38868469E-21
  0.207000002      -4.72232807E-21
  0.208000004      -4.86575546E-21
  0.209000006      -4.77093907E-21
  0.209999993      -4.39234844E-21
  0.210999995      -3.68975019E-21
  0.211999997      -2.63128294E-21
  0.213000000      -1.19670578E-21
  0.214000002       6.19310185E-22
  0.215000004       2.80399889E-21
  0.216000006       5.32359952E-21
  0.216999993       8.12093371E-21
  0.217999995       1.11136651E-20
  0.218999997       1.41934467E-20
  0.219999999       1.72261623E-20
  0.221000001       2.00534398E-20
  0.222000003       2.24956097E-20
  0.223000005       2.43562007E-20
  0.224000007       2.54280652E-20
  0.224999994       2.55011107E-20
  0.225999996       2.43715714E-20
  0.226999998       2.18526626E-20
  0.228000000       1.77863477E-20
  0.229000002       1.20558941E-20
  0.230000004       4.59875585E-21
  0.231000006      -4.58074286E-21
  0.231999993      -1.53995278E-20
  0.232999995      -2.76853829E-20
  0.233999997      -4.11687694E-20
  0.234999999      -5.54775884E-20
  0.236000001      -7.01356231E-20
  0.237000003      -8.45653236E-20
  0.238000005      -9.80955556E-20
  0.238999993      -1.09974761E-19
  0.239999995      -1.19389886E-19
  0.240999997      -1.25491067E-19
  0.241999999      -1.27422068E-19
  0.243000001      -1.24355994E-19
  0.244000003      -1.15535521E-19
  0.245000005      -1.00316775E-19
  0.246000007      -7.82153036E-20
  0.246999994      -4.89527716E-20
  0.247999996      -1.25022445E-20
  0.248999998       3.08699410E-20
  0.250000000       8.05680573E-20
  0.250999987       1.35639061E-19
  0.252000004       1.94755320E-19
  0.252999991       2.56210147E-19
  0.254000008       3.17928523E-19
  0.254999995       3.77494678E-19
  0.256000012       4.32197812E-19
  0.256999999       4.79096807E-19
  0.257999986       5.15104237E-19
  0.259000003       5.37088320E-19
  0.259999990       5.41992364E-19
  0.261000007       5.26968075E-19
  0.261999995       4.89519903E-19
  0.263000011       4.27656280E-19
  0.263999999       3.40041904E-19
  0.264999986       2.26145467E-19
  0.266000003       8.63762158E-20
  0.266999990      -7.77979263E-20
  0.268000007      -2.63757860E-19
  0.268999994      -4.67673598E-19
  0.270000011      -6.84484357E-19
  0.270999998      -9.07924297E-19
  0.272000015      -1.13059915E-18
  0.273000002      -1.34411804E-18
  0.273999989      -1.53928096E-18
  0.275000006      -1.70632326E-18
  0.275999993      -1.83521434E-18
  0.277000010      -1.91600528E-18
  0.277999997      -1.93921907E-18
  0.279000014      -1.89627268E-18
  0.280000001      -1.77991752E-18
  0.280999988      -1.58468573E-18
  0.282000005      -1.30732329E-18
  0.282999992      -9.47193146E-19
  0.284000009      -5.06626825E-19
  0.284999996       8.79294607E-21
  0.286000013       5.90040080E-19
  0.287000000       1.22456035E-18
  0.287999988       1.89631135E-18
  0.289000005       2.58593906E-18
  0.289999992       3.27110124E-18
  0.291000009       3.92694276E-18
  0.291999996       4.52672067E-18
  0.293000013       5.04257366E-18
  0.294000000       5.44642268E-18
  0.294999987       5.71098192E-18
  0.296000004       5.81085447E-18
  0.296999991       5.72368287E-18
  0.298000008       5.43130926E-18
  0.298999995       4.92091153E-18
  0.300000012       4.18606164E-18
  0.300999999       3.22765978E-18
  0.301999986       2.05469803E-18
  0.303000003       6.84800599E-19
  0.303999990      -8.55499089E-19
  0.305000007      -2.53078535E-18
  0.305999994      -4.29712180E-18
  0.307000011      -6.10276733E-18
  0.307999998      -7.88925908E-18
  0.308999985      -9.59285575E-18
  0.310000002      -1.11463274E-17
  0.310999990      -1.24810495E-17
  0.312000006      -1.35293686E-17
  0.312999994      -1.42271591E-17
  0.314000010      -1.45165069E-17
  0.314999998      -1.43484188E-17
  0.316000015      -1.36854749E-17
  0.317000002      -1.25042891E-17
  0.317999989      -1.07976981E-17
  0.319000006      -8.57654112E-18
  0.319999993      -5.87094666E-18
  0.321000010      -2.73101186E-18
  0.321999997       7.73197875E-19
  0.323000014       4.55239553E-18
  0.324000001       8.49960670E-18
  0.324999988       1.24925101E-17
  0.326000005       1.63965577E-17
  0.326999992       2.00688443E-17
  0.328000009       2.33626229E-17
  0.328999996       2.61323792E-17
  0.330000013       2.82393042E-17
  0.331000000       2.95569831E-17
  0.331999987       2.99771247E-17
  0.333000004       2.94150984E-17
  0.333999991       2.78150400E-17
  0.335000008       2.51543308E-17
  0.335999995       2.14471588E-17
  0.337000012       1.67470077E-17
  0.338000000       1.11478519E-17
  0.338999987       4.78389816E-18
  0.340000004      -2.17223088E-18
  0.340999991      -9.51293439E-18
  0.342000008      -1.70007056E-17
  0.342999995      -2.43747644E-17
  0.344000012      -3.13591482E-17
  0.344999999      -3.76720352E-17
  0.345999986      -4.30360731E-17
  0.347000003      -4.71893569E-17
  0.347999990      -4.98967158E-17
  0.349000007      -5.09608472E-17
  0.349999994      -5.02329117E-17
  0.351000011      -4.76220286E-17
  0.351999998      -4.31033031E-17
  0.352999985      -3.67238844E-17
  0.354000002      -2.86066584E-17
  0.354999989      -1.89512637E-17
  0.356000006      -8.03210904E-18
  0.356999993       3.80671289E-18
  0.358000010       1.61597177E-17
  0.358999997       2.85714371E-17
  0.360000014       4.05507594E-17
  0.361000001       5.15878567E-17
  0.361999989       6.11732488E-17
  0.363000005       6.88183896E-17
  0.363999993       7.40771076E-17
  0.365000010       7.65670933E-17
  0.365999997       7.59905285E-17
  0.367000014       7.21530061E-17
  0.368000001       6.49798414E-17
  0.368999988       5.45288048E-17
  0.370000005       4.09985519E-17
  0.370999992       2.47319922E-17
  0.372000009       6.21407441E-18
  0.372999996      -1.39364647E-17
  0.374000013      -3.49814913E-17
  0.375000000      -5.60839970E-17
  0.375999987      -7.63343908E-17
  0.377000004      -9.47820604E-17
  0.377999991      -1.10471255E-16
  0.379000008      -1.22480355E-16
  0.379999995      -1.29963058E-16
  0.381000012      -1.32190066E-16
  0.381999999      -1.28589620E-16
  0.382999986      -1.18785108E-16
  0.384000003      -1.02627954E-16
  0.384999990      -8.02240786E-17
  0.386000007      -5.19522794E-17
  0.386999995      -1.84730425E-17
  0.388000011       1.92733232E-17
  0.388999999       6.00801528E-17
  0.389999986       1.02499960E-16
  0.391000003       1.44881995E-16
  0.391999990       1.85421481E-16
  0.393000007       2.22219411E-16
  0.393999994       2.53351551E-16
  0.395000011       2.76944675E-16
  0.395999998       2.91257493E-16
  0.397000015       2.94763495E-16
  0.398000002       2.86232656E-16
  0.398999989       2.64808466E-16
  0.400000006       2.30076860E-16
  0.400999993       1.82123730E-16
  0.402000010       1.21577445E-16
  0.402999997       4.96336955E-17
  0.404000014      -3.19401831E-17
  0.405000001      -1.20823056E-16
  0.405999988      -2.14181492E-16
  0.407000005      -3.08735118E-16
  0.407999992      -4.00845610E-16
  0.409000009      -4.86627469E-16
  0.409999996      -5.62078517E-16
  0.411000013      -6.23226355E-16
  0.412000000      -6.66286757E-16
  0.412999988      -6.87828552E-16
  0.414000005      -6.84939164E-16
  0.414999992      -6.55384649E-16
  0.416000009      -5.97757345E-16
  0.416999996      -5.11604194E-16
  0.418000013      -3.97529635E-16
  0.419000000      -2.57266220E-16
  0.419999987      -9.37082277E-17
  0.421000004       8.90966760E-17
  0.421999991       2.86000701E-16
  0.423000008       4.90855805E-16
  0.423999995       6.96660512E-16
  0.425000012       8.95751424E-16
  0.425999999       1.08003689E-15
  0.426999986       1.24126569E-15
  0.428000003       1.37132506E-15
  0.428999990       1.46255866E-15
  0.430000007       1.50809356E-15
  0.430999994       1.50216507E-15
  0.432000011       1.44042654E-15
  0.432999998       1.32023214E-15
  0.433999985       1.14087905E-15
  0.435000002       9.03796013E-16
  0.435999990       6.12669042E-16
  0.437000006       2.73492089E-16
  0.437999994      -1.05463609E-16
  0.439000010      -5.13767305E-16
  0.439999998      -9.39035972E-16
  0.441000015      -1.36723082E-15
  0.442000002      -1.78303824E-15
  0.442999989      -2.17032796E-15
  0.444000006      -2.51267835E-15
  0.444999993      -2.79395279E-15
  0.446000010      -2.99891147E-15
  0.446999997      -3.11383817E-15
  0.448000014      -3.12715903E-15
  0.449000001      -3.03003294E-15
  0.449999988      -2.81688536E-15
  0.451000005      -2.48586679E-15
  0.451999992      -2.03920832E-15
  0.453000009      -1.48345867E-15
  0.453999996      -8.29580945E-16
  0.455000013      -9.28979811E-17
  0.456000000       7.07123857E-16
  0.456999987       1.54725634E-15
  0.458000004       2.40105423E-15
  0.458999991       3.23955692E-15
  0.460000008       4.03213009E-15
  0.460999995       4.74743120E-15
  0.462000012       5.35446711E-15
  0.463000000       5.82371870E-15
  0.463999987       6.12829269E-15
  0.465000004       6.24506042E-15
  0.465999991       6.15574799E-15
  0.467000008       5.84792733E-15
  0.467999995       5.31587290E-15
  0.469000012       4.56123981E-15
  0.469999999       3.59352754E-15
  0.470999986       2.43030249E-15
  0.472000003       1.09714918E-15
  0.472999990      -3.72662786E-16
  0.474000007      -1.93880399E-15
  0.474999994      -3.55479950E-15
  0.476000011      -5.16922100E-15
  0.476999998      -6.72712931E-15
  0.477999985      -8.17173681E-15
  0.479000002      -9.44624356E-15
  0.479999989      -1.04957919E-14
  0.481000006      -1.12694837E-14
  0.481999993      -1.17223905E-14
  0.483000010      -1.18174801E-14
  0.483999997      -1.15274035E-14
  0.485000014      -1.08360484E-14
  0.486000001      -9.73981333E-15
  0.486999989      -8.24852373E-15
  0.488000005      -6.38594444E-15
  0.488999993      -4.18984636E-15
  0.490000010      -1.71159471E-15
  0.490999997       9.84752564E-16
  0.492000014       3.82383707E-15
  0.493000001       6.72086127E-15
  0.493999988       9.58388134E-15
  0.495000005       1.23164825E-14
  0.495999992       1.48207608E-14
  0.497000009       1.70005306E-14
  0.497999996       1.87646580E-14
  0.499000013       2.00304183E-14
  0.500000000       2.07267505E-14
  0.500999987       2.07973084E-14
  0.501999974       2.02031774E-14
  0.503000021       1.89251674E-14
  0.504000008       1.69655431E-14
  0.504999995       1.43491515E-14
  0.505999982       1.11238228E-14
  0.507000029       7.36004377E-15
  0.508000016       3.14983453E-15
  0.509000003      -1.39514966E-15
  0.509999990      -6.14627816E-15
  0.510999978      -1.09613119E-14
  0.512000024      -1.56884004E-14
  0.513000011      -2.01706039E-14
  0.513999999      -2.42508192E-14
  0.514999986      -2.77769513E-14
  0.515999973      -3.06071866E-14
  0.517000020      -3.26151697E-14
  0.518000007      -3.36949401E-14
  0.518999994      -3.37654065E-14
  0.519999981      -3.27742289E-14
  0.521000028      -3.07009091E-14
  0.522000015      -2.75589962E-14
  0.523000002      -2.33972455E-14
  0.523999989      -1.82996742E-14
  0.524999976      -1.23844416E-14
  0.526000023      -5.80156455E-15
  0.527000010       1.27053926E-15
  0.527999997       8.62959030E-15
  0.528999984       1.60549810E-14
  0.529999971       2.33141448E-14
  0.531000018       3.01696161E-14
  0.532000005       3.63865296E-14
  0.532999992       4.17403640E-14
  0.533999979       4.60246736E-14
  0.535000026       4.90585322E-14
  0.536000013       5.06934616E-14
  0.537000000       5.08195611E-14
  0.537999988       4.93706265E-14
  0.538999975       4.63280300E-14
  0.540000021       4.17232167E-14
  0.541000009       3.56386233E-14
  0.541999996       2.82070018E-14
  0.542999983       1.96090397E-14
  0.544000030       1.00693608E-14
  0.545000017      -1.49086693E-16
  0.546000004      -1.07520795E-14
  0.546999991      -2.14224407E-14
  0.547999978      -3.18294077E-14
  0.549000025      -4.16387675E-14
  0.550000012      -5.05234519E-14
  0.550999999      -5.81742703E-14
  0.551999986      -6.43104005E-14
  0.552999973      -6.86893169E-14
  0.554000020      -7.11157953E-14
  0.555000007      -7.14497024E-14
  0.555999994      -6.96121695E-14
  0.556999981      -6.55900708E-14
  0.558000028      -5.94384093E-14
  0.559000015      -5.12806723E-14
  0.560000002      -4.13068932E-14
  0.560999990      -2.97695726E-14
  0.561999977      -1.69774371E-14
  0.563000023      -3.28721014E-15
  0.564000010       1.09063759E-14
  0.564999998       2.51820727E-14
  0.565999985       3.91047532E-14
  0.566999972       5.22388258E-14
  0.568000019       6.41620004E-14
  0.569000006       7.44789565E-14
  0.569999993       8.28344825E-14
  0.570999980       8.89256252E-14
  0.572000027       9.25124371E-14
  0.573000014       9.34269345E-14
  0.574000001       9.15799554E-14
  0.574999988       8.69656384E-14
  0.575999975       7.96632861E-14
  0.577000022       6.98365926E-14
  0.578000009       5.77300929E-14
  0.578999996       4.36630272E-14
  0.579999983       2.80206393E-14
  0.580999970       1.12432765E-14
  0.582000017      -6.18648216E-15
  0.583000004      -2.37582442E-14
  0.583999991      -4.09493166E-14
  0.584999979      -5.72408399E-14
  0.586000025      -7.21340034E-14
  0.587000012      -8.51658493E-14
  0.588000000      -9.59241028E-14
  0.588999987      -1.04060552E-13
  0.589999974      -1.09302527E-13
  0.591000021      -1.11462089E-13
  0.592000008      -1.10442600E-13
  0.592999995      -1.06242421E-13
  0.593999982      -9.89555998E-14
  0.595000029      -8.87695543E-14
  0.596000016      -7.59597531E-14
  0.597000003      -6.08815434E-14
  0.597999990      -4.39594446E-14
  0.598999977      -2.56742005E-14
  0.600000024      -6.54803055E-15
  0.601000011       1.28714398E-14
  0.601999998       3.20280437E-14
  0.602999985       5.03741708E-14
  0.603999972       6.73875289E-14
  0.605000019       8.25870134E-14
  0.606000006       9.55471935E-14
  0.606999993       1.05910872E-13
  0.607999980       1.13399355E-13
  0.609000027       1.17820169E-13
  0.610000014       1.19071799E-13
  0.611000001       1.17145578E-13
  0.611999989       1.12124441E-13
  0.612999976       1.04178832E-13
  0.614000022       9.35598102E-14
  0.615000010       8.05896758E-14
  0.615999997       6.56505219E-14
  0.616999984       4.91710859E-14
  0.617999971       3.16124216E-14
  0.619000018       1.34529237E-14
  0.620000005      -4.82676897E-15
  0.620999992      -2.27584268E-14
  0.621999979      -3.98999512E-14
  0.623000026      -5.58476740E-14
  0.624000013      -7.02468479E-14
  0.625000000      -8.27999846E-14
  0.625999987      -9.32727880E-14
  0.626999974      -1.01497580E-13
  0.628000021      -1.07374179E-13
  0.629000008      -1.10868258E-13
  0.629999995      -1.12007409E-13
  0.630999982      -1.10875122E-13
  0.632000029      -1.07603122E-13
  0.633000016      -1.02362326E-13
  0.634000003      -9.53530400E-14
  0.634999990      -8.67947749E-14
  0.635999978      -7.69162227E-14
  0.637000024      -6.59458653E-14
  0.638000011      -5.41036298E-14
  0.638999999      -4.15940408E-14
  0.639999986      -2.86011144E-14
  0.640999973      -1.52852364E-14
  0.642000020      -1.78213212E-15
  0.643000007       1.17960434E-14
  0.643999994       2.53576220E-14
  0.644999981       3.88265503E-14
  0.646000028       5.21360265E-14
  0.647000015       6.52210897E-14
  0.648000002       7.80105689E-14
  0.648999989       9.04189782E-14
  0.649999976       1.02338853E-13
  0.651000023       1.13634166E-13
  0.652000010       1.24135213E-13
  0.652999997       1.33635575E-13
  0.653999984       1.41891544E-13
  0.654999971       1.48624196E-13
  0.656000018       1.53524464E-13
  0.657000005       1.56261072E-13
  0.657999992       1.56491465E-13
  0.658999979       1.53875258E-13
  0.660000026       1.48089955E-13
  0.661000013       1.38848351E-13
  0.662000000       1.25916991E-13
  0.662999988       1.09134950E-13
  0.663999975       8.84319880E-14
  0.665000021       6.38453456E-14
  0.666000009       3.55342180E-14
  0.666999996       3.79104122E-15
  0.667999983      -3.09512005E-14
  0.669000030      -6.81163229E-14
  0.670000017      -1.06987539E-13
  0.671000004      -1.46715702E-13
  0.671999991      -1.86333303E-13
  0.672999978      -2.24774355E-13
  0.674000025      -2.60899782E-13
  0.675000012      -2.93527816E-13
  0.675999999      -3.21468899E-13
  0.676999986      -3.43563855E-13
  0.677999973      -3.58724335E-13
  0.679000020      -3.65974395E-13
  0.680000007      -3.64491477E-13
  0.680999994      -3.53645553E-13
  0.681999981      -3.33034652E-13
  0.683000028      -3.02515608E-13
  0.684000015      -2.62228255E-13
  0.685000002      -2.12611938E-13
  0.685999990      -1.54413239E-13
  0.686999977      -8.86841327E-14
  0.688000023      -1.67698497E-14
  0.689000010       5.97136002E-14
  0.689999998       1.38912278E-13
  0.690999985       2.18776982E-13
  0.691999972       2.97114845E-13
  0.693000019       3.71648838E-13
  0.694000006       4.40083273E-13
  0.694999993       5.00173958E-13
  0.695999980       5.49800494E-13
  0.697000027       5.87038664E-13
  0.698000014       6.10230562E-13
  0.699000001       6.18049719E-13
  0.699999988       6.09559332E-13
  0.700999975       5.84260884E-13
  0.702000022       5.42131281E-13
  0.703000009       4.83646868E-13
  0.703999996       4.09792480E-13
  0.704999983       3.22055018E-13
  0.705999970       2.22400847E-13
  0.707000017       1.13236738E-13
  0.708000004      -2.64459907E-15
  0.708999991      -1.22133776E-13
  0.709999979      -2.41886941E-13
  0.711000025      -3.58418997E-13
  0.712000012      -4.68205119E-13
  0.713000000      -5.67787950E-13
  0.713999987      -6.53886992E-13
  0.714999974      -7.23506704E-13
  0.716000021      -7.74040174E-13
  0.717000008      -8.03364699E-13
  0.717999995      -8.09925803E-13
  0.718999982      -7.92806413E-13
  0.720000029      -7.51778956E-13
  0.721000016      -6.87337611E-13
  0.722000003      -6.00709207E-13
  0.722999990      -4.93841296E-13
  0.723999977      -3.69367378E-13
  0.725000024      -2.30549412E-13
  0.726000011      -8.11984825E-14
  0.726999998       7.44244347E-14
  0.727999985       2.31725256E-13
  0.728999972       3.85907967E-13
  0.730000019       5.32116560E-13
  0.731000006       6.65583636E-13
  0.731999993       7.81781107E-13
  0.732999980       8.76568458E-13
  0.734000027       9.46333506E-13
  0.735000014       9.88121477E-13
  0.736000001       9.99747594E-13
  0.736999989       9.79889021E-13
  0.737999976       9.28153387E-13
  0.739000022       8.45119656E-13
  0.740000010       7.32350812E-13
  0.740999997       5.92376029E-13
  0.741999984       4.28641958E-13
  0.742999971       2.45434857E-13
  0.744000018       4.77737323E-14
  0.745000005      -1.58722021E-13
  0.745999992      -3.67987406E-13
  0.746999979      -5.73684871E-13
  0.748000026      -7.69390682E-13
  0.749000013      -9.48789116E-13
  0.750000000      -1.10586854E-12
  0.750999987      -1.23511368E-12
  0.751999974      -1.33168802E-12
  0.753000021      -1.39159929E-12
  0.754000008      -1.41184449E-12
  0.754999995      -1.39052767E-12
  0.755999982      -1.32694658E-12
  0.757000029      -1.22164561E-12
  0.758000016      -1.07643159E-12
  0.759000003      -8.94350783E-13
  0.759999990      -6.79628283E-13
  0.760999978      -4.37569685E-13
  0.762000024      -1.74427354E-13
  0.763000011       1.02765195E-13
  0.763999999       3.86386398E-13
  0.764999986       6.68441864E-13
  0.765999973       9.40795835E-13
  0.767000020       1.19541161E-12
  0.768000007       1.42459417E-12
  0.768999994       1.62122702E-12
  0.769999981       1.77899698E-12
  0.771000028       1.89259784E-12
  0.772000015       1.95790844E-12
  0.773000002       1.97213708E-12
  0.773999989       1.93392849E-12
  0.774999976       1.84342949E-12
  0.776000023       1.70230952E-12
  0.777000010       1.51373532E-12
  0.777999997       1.28230000E-12
  0.778999984       1.01390662E-12
  0.779999971       7.15611110E-13
  0.781000018       3.95426638E-13
  0.782000005       6.20965546E-14
  0.782999992      -2.75158721E-13
  0.783999979      -6.06912903E-13
  0.785000026      -9.23814952E-13
  0.786000013      -1.21687209E-12
  0.787000000      -1.47772474E-12
  0.787999988      -1.69890621E-12
  0.788999975      -1.87407793E-12
  0.790000021      -1.99823231E-12
  0.791000009      -2.06785782E-12
  0.791999996      -2.08105842E-12
  0.792999983      -2.03762463E-12
  0.794000030      -1.93905352E-12
  0.795000017      -1.78851562E-12
  0.796000004      -1.59076788E-12
  0.796999991      -1.35201800E-12
  0.797999978      -1.07974025E-12
  0.799000025      -7.82450764E-13
  0.800000012      -4.69446801E-13
  0.800999999      -1.50519056E-13
  0.801999986       1.64354411E-13
  0.802999973       4.65323526E-13
  0.804000020       7.42980710E-13
  0.805000007       9.88664229E-13
  0.805999994       1.19474114E-12
  0.806999981       1.35486002E-12
  0.808000028       1.46416516E-12
  0.809000015       1.51946554E-12
  0.810000002       1.51935105E-12
  0.810999990       1.46425363E-12
  0.811999977       1.35644859E-12
  0.813000023       1.19999713E-12
  0.814000010       1.00062970E-12
  0.814999998       7.65574453E-13
  0.815999985       5.03334570E-13
  0.816999972       2.23421718E-13
  0.818000019      -6.39468540E-14
  0.819000006      -3.48177840E-13
  0.819999993      -6.18647765E-13
  0.820999980      -8.65054827E-13
  0.822000027      -1.07776440E-12
  0.823000014      -1.24813777E-12
  0.824000001      -1.36883322E-12
  0.824999988      -1.43406868E-12
  0.825999975      -1.43983740E-12
  0.827000022      -1.38406918E-12
  0.828000009      -1.26673054E-12
  0.828999996      -1.08986106E-12
  0.829999983      -8.57542010E-13
  0.830999970      -5.75799011E-13
  0.832000017      -2.52440294E-13
  0.833000004       1.03165198E-13
  0.833999991       4.80363254E-13
  0.834999979       8.67535210E-13
  0.836000025       1.25245441E-12
  0.837000012       1.62266760E-12
  0.838000000       1.96588839E-12
  0.838999987       2.27039134E-12
  0.839999974       2.52539352E-12
  0.841000021       2.72141055E-12
  0.842000008       2.85057655E-12
  0.842999995       2.90691624E-12
  0.843999982       2.88656035E-12
  0.845000029       2.78789622E-12
  0.846000016       2.61164961E-12
  0.847000003       2.36089165E-12
  0.847999990       2.04097243E-12
  0.848999977       1.65938151E-12
  0.850000024       1.22553844E-12
  0.851000011       7.50520414E-13
  0.851999998       2.46734789E-13
  0.852999985      -2.72454016E-13
  0.853999972      -7.93130969E-13
  0.855000019      -1.30125825E-12
  0.856000006      -1.78311055E-12