   0.00000000       0.00000000    
   1.00000005E-03   0.00000000    
   2.00000009E-03   0.00000000    
   3.00000003E-03   0.00000000    
   4.00000019E-03   5.77159151E-18
   4.99999989E-03   5.06734119E-17
   6.00000005E-03   2.45772751E-16
   7.00000022E-03   8.69103873E-16
   8.00000038E-03   2.49959973E-15
   8.99999961E-03   6.19220217E-15
   9.99999978E-03   1.36786029E-14
   1.09999999E-02   2.75643088E-14
   1.20000001E-02   5.14790135E-14
   1.30000003E-02   9.01257760E-14
   1.40000004E-02   1.49167218E-13
   1.49999997E-02   2.34886736E-13
   1.60000008E-02   3.53570092E-13
   1.70000009E-02   5.10569993E-13
   1.79999992E-02   7.09043935E-13
   1.89999994E-02   9.48390346E-13
   1.99999996E-02   1.22245432E-12
   2.09999997E-02   1.51761904E-12
   2.19999999E-02   1.81095156E-12
   2.30000000E-02   2.06861459E-12
   2.40000002E-02   2.24479333E-12
   2.50000004E-02   2.28140814E-12
   2.60000005E-02   2.10888490E-12
   2.70000007E-02   1.64823775E-12
   2.80000009E-02   8.14663604E-13
   2.89999992E-02  -4.77214188E-13
   2.99999993E-02  -2.30645559E-12
   3.09999995E-02  -4.73733422E-12
   3.20000015E-02  -7.80956723E-12
   3.29999998E-02  -1.15276920E-11
   3.40000018E-02  -1.58500973E-11
   3.50000001E-02  -2.06785058E-11
   3.59999985E-02  -2.58487624E-11
   3.70000005E-02  -3.11238292E-11
   3.79999988E-02  -3.61901550E-11
   3.90000008E-02  -4.06581539E-11
   3.99999991E-02  -4.40679576E-11
   4.10000011E-02  -4.59010781E-11
   4.19999994E-02  -4.55983584E-11
   4.30000015E-02  -4.25847170E-11
   4.39999998E-02  -3.63000671E-11
   4.50000018E-02  -2.62362423E-11
   4.60000001E-02  -1.19782647E-11
   4.69999984E-02   6.75097695E-12
   4.80000004E-02   3.00454314E-11
   4.89999987E-02   5.77718151E-11
   5.00000007E-02   8.95300639E-11
   5.09999990E-02   1.24621063E-10
   5.20000011E-02   1.62024921E-10
   5.29999994E-02   2.00392730E-10
   5.40000014E-02   2.38054770E-10
   5.49999997E-02   2.73047390E-10
   5.60000017E-02   3.03159275E-10
   5.70000000E-02   3.26000310E-10
   5.79999983E-02   3.39089312E-10
   5.90000004E-02   3.39961975E-10
   5.99999987E-02   3.26295546E-10
   6.10000007E-02   2.96045161E-10
   6.19999990E-02   2.47588533E-10
   6.30000010E-02   1.79871340E-10
   6.40000030E-02   9.25466162E-11
   6.49999976E-02  -1.38998865E-11
   6.59999996E-02  -1.38046297E-10
   6.70000017E-02  -2.77461526E-10
   6.80000037E-02  -4.28670710E-10
   6.89999983E-02  -5.87164373E-10
   7.00000003E-02  -7.47458928E-10
   7.10000023E-02  -9.03209341E-10
   7.19999969E-02  -1.04737885E-09
   7.29999989E-02  -1.17246113E-09
   7.40000010E-02  -1.27075295E-09
   7.50000030E-02  -1.33466815E-09
   7.59999976E-02  -1.35708800E-09
   7.69999996E-02  -1.33172973E-09
   7.80000016E-02  -1.25352129E-09
   7.90000036E-02  -1.11896681E-09
   7.99999982E-02  -9.26481558E-10
   8.10000002E-02  -6.76679601E-10
   8.20000023E-02  -3.72596509E-10
   8.29999968E-02  -1.98265310E-11
   8.39999989E-02   3.73435921E-10
   8.50000009E-02   7.96466337E-10
   8.60000029E-02   1.23619937E-09
   8.69999975E-02   1.67753966E-09
   8.79999995E-02   2.10378959E-09
   8.90000015E-02   2.49719356E-09
   9.00000036E-02   2.83958057E-09
   9.09999982E-02   3.11308135E-09
   9.20000002E-02   3.30090599E-09
   9.30000022E-02   3.38814399E-09
   9.39999968E-02   3.36255468E-09
   9.49999988E-02   3.21531757E-09
   9.60000008E-02   2.94169511E-09
   9.70000029E-02   2.54158605E-09
   9.79999974E-02   2.01991912E-09
   9.89999995E-02   1.38686829E-09
  0.100000001       6.57862598E-10
  0.101000004      -1.46633622E-10
  0.101999998      -1.00156805E-09
  0.103000000      -1.87797822E-09
  0.104000002      -2.74390044E-09
  0.104999997      -3.56545415E-09
  0.105999999      -4.30811431E-09
  0.107000001      -4.93808949E-09
  0.108000003      -5.42377521E-09
  0.108999997      -5.73721648E-09
  0.109999999      -5.85551918E-09
  0.111000001      -5.76214543E-09
  0.112000003      -5.44802647E-09
  0.112999998      -4.91242913E-09
  0.114000000      -4.16353085E-09
  0.115000002      -3.21864313E-09
  0.115999997      -2.10407225E-09
  0.116999999      -8.54572024E-10
  0.118000001       4.87581808E-10
  0.119000003       1.87390747E-09
  0.119999997       3.25137872E-09
  0.120999999       4.56436888E-09
  0.122000001       5.75683368E-09
  0.123000003       6.77462930E-09
  0.123999998       7.56788765E-09
  0.125000000       8.09334466E-09
  0.126000002       8.31648261E-09
  0.127000004       8.21347168E-09
  0.128000006       7.77270248E-09
  0.128999993       6.99589631E-09
  0.129999995       5.89869753E-09
  0.130999997       4.51068116E-09
  0.131999999       2.87478175E-09
  0.133000001       1.04610054E-09
  0.134000003      -9.09875897E-10
  0.135000005      -2.91958324E-09
  0.136000007      -4.90414642E-09
  0.136999995      -6.78250567E-09
  0.137999997      -8.47478354E-09
  0.138999999      -9.90573312E-09
  0.140000001      -1.10081473E-08
  0.141000003      -1.17260379E-08
  0.142000005      -1.20174688E-08
  0.143000007      -1.18568639E-08
  0.143999994      -1.12366791E-08
  0.144999996      -1.01683506E-08
  0.145999998      -8.68239436E-09
  0.147000000      -6.82767265E-09
  0.148000002      -4.66979433E-09
  0.149000004      -2.28869279E-09
  0.150000006       2.24547769E-10
  0.150999993       2.77147705E-09
  0.151999995       5.25055510E-09
  0.152999997       7.56169438E-09
  0.153999999       9.61093161E-09
  0.155000001       1.13149197E-08
  0.156000003       1.26051019E-08
  0.157000005       1.34313094E-08
  0.158000007       1.37645770E-08
  0.158999994       1.35990179E-08
  0.159999996       1.29526612E-08
  0.160999998       1.18670718E-08
  0.162000000       1.04058326E-08
  0.163000003       8.65178684E-09
  0.164000005       6.70325617E-09
  0.165000007       4.66921835E-09
  0.165999994       2.66381583E-09
  0.166999996       8.00285338E-10
  0.167999998      -8.15350731E-10
  0.169000000      -2.09049600E-09
  0.170000002      -2.95180103E-09
  0.171000004      -3.35029293E-09
  0.172000006      -3.26545102E-09
  0.172999993      -2.70802381E-09
  0.173999995      -1.72128034E-09
  0.174999997      -3.80645765E-10
  0.175999999       1.20850951E-09
  0.177000001       2.91475444E-09
  0.178000003       4.58627403E-09
  0.179000005       6.05798212E-09
  0.180000007       7.15995796E-09
  0.180999994       7.72672770E-09
  0.181999996       7.60711494E-09
  0.182999998       6.67411193E-09
  0.184000000       4.83436136E-09
  0.185000002       2.03655692E-09
  0.186000004      -1.72145387E-09
  0.187000006      -6.38757713E-09
  0.187999994      -1.18526398E-08
  0.188999996      -1.79502351E-08
  0.189999998      -2.44593750E-08
  0.191000000      -3.11099910E-08
  0.192000002      -3.75915938E-08
  0.193000004      -4.35643415E-08
  0.194000006      -4.86726073E-08
  0.194999993      -5.25606509E-08
  0.195999995      -5.48893730E-08
  0.196999997      -5.53539188E-08
  0.197999999      -5.37011005E-08
  0.199000001      -4.97459673E-08
  0.200000003      -4.33865921E-08
  0.201000005      -3.46163027E-08
  0.202000007      -2.35326638E-08
  0.202999994      -1.03424265E-08
  0.203999996       4.63798999E-09
  0.204999998       2.09866666E-08
  0.206000000       3.81856857E-08
  0.207000002       5.56351694E-08
  0.208000004       7.26723570E-08
  0.209000006       8.85945539E-08
  0.209999993       1.02685746E-07
  0.210999995       1.14245530E-07
  0.211999997       1.22619852E-07
  0.213000000       1.27231502E-07
  0.214000002       1.27609937E-07
  0.215000004       1.23418587E-07
  0.216000006       1.14478212E-07
  0.216999993       1.00785691E-07
  0.217999995       8.25262134E-08
  0.218999997       6.00789036E-08
  0.219999999       3.40145476E-08
  0.221000001       5.08520070E-09
  0.222000003      -2.57941650E-08
  0.223000005      -5.75719810E-08
  0.224000007      -8.90936889E-08
  0.224999994      -1.19141504E-07
  0.225999996      -1.46479323E-07
  0.226999998      -1.69900915E-07
  0.228000000      -1.88279827E-07
  0.229000002      -2.00619084E-07
  0.230000004      -2.06098420E-07
  0.231000006      -2.04116930E-07
  0.231999993      -1.94329616E-07
  0.232999995      -1.76675414E-07
  0.233999997      -1.51395540E-07
  0.234999999      -1.19040443E-07
  0.236000001      -8.04651847E-08
  0.237000003      -3.68121178E-08
  0.238000005       1.05188258E-08
  0.238999993       5.99113790E-08
  0.239999995       1.09585095E-07
  0.240999997       1.57656601E-07
  0.241999999       2.02207858E-07
  0.243000001       2.41359373E-07
  0.244000003       2.73345023E-07
  0.245000005       2.96586563E-07
  0.246000007       3.09763834E-07
  0.246999994       3.11878182E-07
  0.247999996       3.02306205E-07
  0.248999998       2.80841221E-07
  0.250000000       2.47720465E-07
  0.250999987       2.03635665E-07
  0.252000004       1.49726787E-07
  0.252999991       8.75577868E-08
  0.254000008       1.90749674E-08
  0.254999995      -5.34515756E-08
  0.256000012      -1.27501124E-07
  0.256999999      -2.00388385E-07
  0.257999986      -2.69359674E-07
  0.259000003      -3.31694878E-07
  0.259999990      -3.84812751E-07
  0.261000007      -4.26374328E-07
  0.261999995      -4.54381535E-07
  0.263000011      -4.67265693E-07
  0.263999999      -4.63962607E-07
  0.264999986      -4.43972084E-07
  0.266000003      -4.07396186E-07
  0.266999990      -3.54957365E-07
  0.268000007      -2.87991838E-07
  0.268999994      -2.08420531E-07
  0.270000011      -1.18695581E-07
  0.270999998      -2.17256737E-08
  0.272000015       7.92191202E-08
  0.273000002       1.80619068E-07
  0.273999989       2.78829361E-07
  0.275000006       3.70213371E-07
  0.275999993       4.51279533E-07
  0.277000010       5.18816307E-07
  0.277999997       5.70020916E-07
  0.279000014       6.02615273E-07
  0.280000001       6.14945975E-07
  0.280999988       6.06062031E-07
  0.282000005       5.75769150E-07
  0.282999992       5.24655320E-07
  0.284000009       4.54088280E-07
  0.284999996       3.66182690E-07
  0.286000013       2.63738485E-07
  0.287000000       1.50151095E-07
  0.287999988       2.92979863E-08
  0.289000005      -9.45966292E-08
  0.289999992      -2.17112458E-07
  0.291000009      -3.33794674E-07
  0.291999996      -4.40320207E-07
  0.293000013      -5.32661772E-07
  0.294000000      -6.07244715E-07
  0.294999987      -6.61088336E-07
  0.296000004      -6.91928733E-07
  0.296999991      -6.98314864E-07
  0.298000008      -6.79676759E-07
  0.298999995      -6.36360767E-07
  0.300000012      -5.69630060E-07
  0.300999999      -4.81631048E-07
  0.301999986      -3.75325016E-07
  0.303000003      -2.54388226E-07
  0.303999990      -1.23082970E-07
  0.305000007       1.38952334E-08
  0.305999994       1.51588949E-07
  0.307000011       2.84962198E-07
  0.307999998       4.09089523E-07
  0.308999985       5.19342109E-07
  0.310000002       6.11565156E-07
  0.310999990       6.82239090E-07
  0.312000006       7.28617863E-07
  0.312999994       7.48839000E-07
  0.314000010       7.42000509E-07
  0.314999998       7.08202435E-07
  0.316000015       6.48549474E-07
  0.317000002       5.65115556E-07
  0.317999989       4.60871291E-07
  0.319000006       3.39575308E-07
  0.319999993       2.05636113E-07
  0.321000010       6.39474038E-08
  0.321999997      -8.02958979E-08
  0.323000014      -2.21794295E-07
  0.324000001      -3.55344724E-07
  0.324999988      -4.76039020E-07
  0.326000005      -5.79450841E-07
  0.326999992      -6.61805814E-07
  0.328000009      -7.20125456E-07
  0.328999996      -7.52340725E-07
  0.330000013      -7.57371424E-07
  0.331000000      -7.35165827E-07
  0.331999987      -6.86701753E-07
  0.333000004      -6.13946497E-07
  0.333999991      -5.19779007E-07
  0.335000008      -4.07876115E-07
  0.335999995      -2.82567839E-07
  0.337000012      -1.48667951E-07
  0.338000000      -1.12857439E-08
  0.338999987       1.24373571E-07
  0.340000004       2.53210743E-07
  0.340999991       3.70430485E-07
  0.342000008       4.71725286E-07
  0.342999995       5.53440714E-07
  0.344000012       6.12712597E-07
  0.344999999       6.47573472E-07
  0.345999986       6.57021985E-07
  0.347000003       6.41054214E-07
  0.347999990       6.00655028E-07
  0.349000007       5.37749884E-07
  0.349999994       4.55120329E-07
  0.351000011       3.56285256E-07
  0.351999998       2.45354528E-07
  0.352999985       1.26859646E-07
  0.354000002       5.56940005E-09
  0.354999989      -1.13701830E-07
  0.356000006      -2.26286204E-07
  0.356999993      -3.27846351E-07
  0.358000010      -4.14544047E-07
  0.358999997      -4.83186739E-07
  0.360000014      -5.31346018E-07
  0.361000001      -5.57444366E-07
  0.361999989      -5.60805802E-07
  0.363000005      -5.41669465E-07
  0.363999993      -5.01165516E-07
  0.365000010      -4.41255906E-07
  0.365999997      -3.64641011E-07
  0.367000014      -2.74638296E-07
  0.368000001      -1.75037528E-07
  0.368999988      -6.99385865E-08
  0.370000005       3.64203814E-08
  0.370999992       1.39837809E-07
  0.372000009       2.36318613E-07
  0.372999996       3.22232950E-07
  0.374000013       3.94456663E-07
  0.375000000       4.50487704E-07
  0.375999987       4.88534965E-07
  0.377000004       5.07575123E-07
  0.377999991       5.07376399E-07
  0.379000008       4.88488865E-07
  0.379999995       4.52201476E-07
  0.381000012       4.00469105E-07
  0.381999999       3.35813809E-07
  0.382999986       2.61203411E-07
  0.384000003       1.79914579E-07
  0.384999990       9.53860280E-08
  0.386000007       1.10685487E-08
  0.386999995      -6.97216294E-08
  0.388000011      -1.43939459E-07
  0.388999999      -2.08932406E-07
  0.389999986      -2.62541391E-07
  0.391000003      -3.03176620E-07
  0.391999990      -3.29866793E-07
  0.393000007      -3.42279264E-07
  0.393999994      -3.40711239E-07
  0.395000011      -3.26052458E-07
  0.395999998      -2.99723894E-07
  0.397000015      -2.63592540E-07
  0.398000002      -2.19869904E-07
  0.398999989      -1.70997779E-07
  0.400000006      -1.19526888E-07
  0.400999993      -6.79947405E-08
  0.402000010      -1.88083522E-08
  0.402999997       2.58636028E-08
  0.404000014       6.41823661E-08
  0.405000001       9.47132648E-08
  0.405999988       1.16476713E-07
  0.407000005       1.28975998E-07
  0.407999992       1.32200469E-07
  0.409000009       1.26604178E-07
  0.409999996       1.13062967E-07
  0.411000013       9.28109216E-08
  0.412000000       6.73620306E-08
  0.412999988       3.84191523E-08
  0.414000005       7.77681919E-09
  0.414999992      -2.27776038E-08
  0.416000009      -5.15587821E-08
  0.416999996      -7.70706094E-08
  0.418000013      -9.80797594E-08
  0.419000000      -1.13672876E-07
  0.419999987      -1.23295052E-07
  0.421000004      -1.26766366E-07
  0.421999991      -1.24277960E-07
  0.423000008      -1.16365918E-07
  0.423999995      -1.03867045E-07
  0.425000012      -8.78567903E-08
  0.425999999      -6.95750870E-08
  0.426999986      -5.03428126E-08
  0.428000003      -3.14747766E-08
  0.428999990      -1.41930361E-08
  0.430000007       4.53280635E-10
  0.430999994       1.16578489E-08
  0.432000011       1.89121732E-08
  0.432999998       2.20425385E-08
  0.433999985       2.12267768E-08
  0.435000002       1.69884320E-08
  0.435999990       1.01697308E-08
  0.437000006       1.88394789E-09
  0.437999994      -6.55226451E-09
  0.439000010      -1.37000029E-08
  0.439999998      -1.80921269E-08
  0.441000015      -1.83314857E-08
  0.442000002      -1.31918032E-08
  0.442999989      -1.71224368E-09
  0.444000006       1.67184933E-08
  0.444999993       4.22926405E-08
  0.446000010       7.47350128E-08
  0.446999997       1.13278418E-07
  0.448000014       1.56665180E-07
  0.449000001       2.03175986E-07
  0.449999988       2.50686668E-07
  0.451000005       2.96749960E-07
  0.451999992       3.38701142E-07
  0.453000009       3.73780921E-07
  0.453999996       3.99272892E-07
  0.455000013       4.12646386E-07
  0.456000000       4.11700114E-07
  0.456999987       3.94699441E-07
  0.458000004       3.60496927E-07
  0.458999991       3.08634839E-07
  0.460000008       2.39418057E-07
  0.460999995       1.53956492E-07
  0.462000012       5.41712524E-08
  0.463000000      -5.72361323E-08
  0.463999987      -1.76854371E-07
  0.465000004      -3.00666500E-07
  0.465999991      -4.24191313E-07
  0.467000008      -5.42649957E-07
  0.467999995      -6.51157279E-07
  0.469000012      -7.44925785E-07
  0.469999999      -8.19476668E-07
  0.470999986      -8.70847941E-07
  0.472000003      -8.95787707E-07
  0.472999990      -8.91928210E-07
  0.474000007      -8.57927546E-07
  0.474999994      -7.93574600E-07
  0.476000011      -6.99849238E-07
  0.476999998      -5.78933282E-07
  0.477999985      -4.34173984E-07
  0.479000002      -2.69992910E-07
  0.479999989      -9.17492926E-08
  0.481000006       9.44435925E-08
  0.481999993       2.81937957E-07
  0.483000010       4.63802337E-07
  0.483999997       6.33092213E-07
  0.485000014       7.83130190E-07
  0.486000001       9.07782237E-07
  0.486999989       1.00172235E-06
  0.488000005       1.06067012E-06
  0.488999993       1.08159099E-06
  0.490000010       1.06285336E-06
  0.490999997       1.00432817E-06
  0.492000014       9.07434469E-07
  0.493000001       7.75116689E-07
  0.493999988       6.11765358E-07
  0.495000005       4.23070503E-07
  0.495999992       2.15823121E-07
  0.497000009      -2.33410646E-09
  0.497999996      -2.23196196E-07
  0.499000013      -4.38313862E-07
  0.500000000      -6.39325890E-07
  0.500999987      -8.18296201E-07
  0.501999974      -9.68038307E-07
  0.503000021      -1.08241363E-06
  0.504000008      -1.15659361E-06
  0.504999995      -1.18727189E-06
  0.505999982      -1.17281468E-06
  0.507000029      -1.11335078E-06
  0.508000016      -1.01078456E-06
  0.509000003      -8.68740642E-07
  0.509999990      -6.92436572E-07
  0.510999978      -4.88488922E-07
  0.512000024      -2.64659235E-07
  0.513000011      -2.95525329E-08
  0.513999999       2.07722465E-07
  0.514999986       4.37917834E-07
  0.515999973       6.52018400E-07
  0.517000020       8.41606379E-07
  0.518000007       9.99208396E-07
  0.518999994       1.11859902E-06
  0.519999981       1.19506046E-06
  0.521000028       1.22558242E-06
  0.522000015       1.20898710E-06
  0.523000002       1.14598458E-06
  0.523999989       1.03914840E-06
  0.524999976       8.92813773E-07
  0.526000023       7.12904694E-07
  0.527000010       5.06692345E-07
  0.527999997       2.82497098E-07
  0.528999984       4.93502981E-08
  0.529999971      -1.83380720E-07
  0.531000018      -4.06375335E-07
  0.532000005      -6.10747804E-07
  0.532999992      -7.88409864E-07
  0.533999979      -9.32405896E-07
  0.535000026      -1.03720151E-06
  0.536000013      -1.09890641E-06
  0.537000000      -1.11543409E-06
  0.537999988      -1.08658412E-06
  0.538999975      -1.01404453E-06
  0.540000021      -9.01314650E-07
  0.541000009      -7.53552570E-07
  0.541999996      -5.77354001E-07
  0.542999983      -3.80467981E-07
  0.544000030      -1.71466951E-07
  0.545000017       4.06170422E-08
  0.546000004       2.46676706E-07
  0.546999991       4.37912945E-07
  0.547999978       6.06204708E-07
  0.549000025       7.44452166E-07
  0.550000012       8.46870705E-07
  0.550999999       9.09230096E-07
  0.551999986       9.29025191E-07
  0.552999973       9.05574211E-07
  0.554000020       8.40037785E-07
  0.555000007       7.35356934E-07
  0.555999994       5.96122618E-07
  0.556999981       4.28363478E-07
  0.558000028       2.39290642E-07
  0.559000015       3.69732120E-08
  0.560000002      -1.70003474E-07
  0.560999990      -3.72908403E-07
  0.561999977      -5.63239382E-07
  0.563000023      -7.33076263E-07
  0.564000010      -8.75420142E-07
  0.564999998      -9.84475264E-07
  0.565999985      -1.05589163E-06
  0.566999972      -1.08692643E-06
  0.568000019      -1.07655114E-06
  0.569000006      -1.02547301E-06
  0.569999993      -9.36087986E-07
  0.570999980      -8.12350322E-07
  0.572000027      -6.59594150E-07
  0.573000014      -4.84279553E-07
  0.574000001      -2.93707899E-07
  0.574999988      -9.56893587E-08
  0.575999975       1.01787798E-07
  0.577000022       2.90910378E-07
  0.578000009       4.64365087E-07
  0.578999996       6.15646172E-07
  0.579999983       7.39312668E-07
  0.580999970       8.31206364E-07
  0.582000017       8.88595423E-07
  0.583000004       9.10261122E-07
  0.583999991       8.96514678E-07
  0.584999979       8.49137109E-07
  0.586000025       7.71265661E-07
  0.587000012       6.67214181E-07
  0.588000000       5.42245402E-07
  0.588999987       4.02301737E-07
  0.589999974       2.53722845E-07
  0.591000021       1.02933718E-07
  0.592000008      -4.38420678E-08
  0.592999995      -1.80873343E-07
  0.593999982      -3.03170566E-07
  0.595000029      -4.06688343E-07
  0.596000016      -4.88489832E-07
  0.597000003      -5.46840170E-07
  0.597999990      -5.81251754E-07
  0.598999977      -5.92450874E-07
  0.600000024      -5.82295115E-07
  0.601000011      -5.53633527E-07
  0.601999998      -5.10117616E-07
  0.602999985      -4.55969428E-07
  0.603999972      -3.95736322E-07
  0.605000019      -3.34022076E-07
  0.606000006      -2.75227421E-07
  0.606999993      -2.23298485E-07
  0.607999980      -1.81511581E-07
  0.609000027      -1.52285324E-07
  0.610000014      -1.37053490E-07
  0.611000001      -1.36188362E-07
  0.611999989      -1.48983773E-07
  0.612999976      -1.73689202E-07
  0.614000022      -2.07635594E-07
  0.615000010      -2.47366103E-07
  0.615999997      -2.88857564E-07
  0.616999984      -3.27747131E-07
  0.617999971      -3.59605139E-07
  0.619000018      -3.80195274E-07
  0.620000005      -3.85752060E-07
  0.620999992      -3.73225703E-07
  0.621999979      -3.40496968E-07
  0.623000026      -2.86547845E-07
  0.624000013      -2.11591782E-07
  0.625000000      -1.17112577E-07
  0.625999987      -5.86579585E-09
  0.626999974       1.18210430E-07
  0.628000021       2.50129489E-07
  0.629000008       3.84072479E-07
  0.629999995       5.13638213E-07
  0.630999982       6.32150261E-07
  0.632000029       7.32975820E-07
  0.633000016       8.09861490E-07
  0.634000003       8.57271914E-07
  0.634999990       8.70699125E-07
  0.635999978       8.46935848E-07
  0.637000024       7.84296958E-07
  0.638000011       6.82779330E-07
  0.638999999       5.44145337E-07
  0.639999986       3.71924585E-07
  0.640999973       1.71340290E-07
  0.642000020      -5.08617184E-08
  0.643000007      -2.86637970E-07
  0.643999994      -5.26975896E-07
  0.644999981      -7.62242507E-07
  0.646000028      -9.82592951E-07
  0.647000015      -1.17841046E-06
  0.648000002      -1.34072945E-06
  0.648999989      -1.46165723E-06
  0.649999976      -1.53477026E-06
  0.651000023      -1.55543182E-06
  0.652000010      -1.52106895E-06
  0.652999997      -1.43133695E-06
  0.653999984      -1.28821421E-06
  0.654999971      -1.09598864E-06
  0.656000018      -8.61137778E-07
  0.657000005      -5.92114873E-07
  0.657999992      -2.99035406E-07
  0.658999979       6.71384282E-09
  0.660000026       3.12929842E-07
  0.661000013       6.07081859E-07
  0.662000000       8.76867773E-07
  0.662999988       1.11071915E-06
  0.663999975       1.29833813E-06
  0.665000021       1.43115153E-06
  0.666000009       1.50271194E-06
  0.666999996       1.50904805E-06
  0.667999983       1.44883847E-06
  0.669000030       1.32355956E-06
  0.670000017       1.13747069E-06
  0.671000004       8.97475218E-07
  0.671999991       6.12879091E-07
  0.672999978       2.95033317E-07
  0.674000025      -4.30987050E-08
  0.675000012      -3.87495760E-07
  0.675999999      -7.23633264E-07
  0.676999986      -1.03712262E-06
  0.677999973      -1.31430511E-06
  0.679000020      -1.54288728E-06
  0.680000007      -1.71244142E-06
  0.680999994      -1.81493397E-06
  0.681999981      -1.84507701E-06
  0.683000028      -1.80060624E-06
  0.684000015      -1.68244412E-06
  0.685000002      -1.49468451E-06
  0.685999990      -1.24448411E-06
  0.686999977      -9.41809390E-07
  0.688000023      -5.99036809E-07
  0.689000010      -2.30480026E-07
  0.689999998       1.48213971E-07
  0.690999985       5.20704702E-07
  0.691999972       8.70630572E-07
  0.693000019       1.18233402E-06
  0.694000006       1.44152148E-06
  0.694999993       1.63592063E-06
  0.695999980       1.75577361E-06
  0.697000027       1.79437052E-06
  0.698000014       1.74831450E-06
  0.699000001       1.61774926E-06
  0.699999988       1.40639816E-06
  0.700999975       1.12145426E-06
  0.702000022       7.73319812E-07
  0.703000009       3.75241854E-07
  0.703999996      -5.72363277E-08
  0.704999983      -5.06886181E-07
  0.705999970      -9.55478527E-07
  0.707000017      -1.38457006E-06
  0.708000004      -1.77622167E-06
  0.708999991      -2.11379211E-06
  0.709999979      -2.38262191E-06
  0.711000025      -2.57067268E-06
  0.712000012      -2.66906204E-06
  0.713000000      -2.67246401E-06
  0.713999987      -2.57934380E-06
  0.714999974      -2.39209066E-06
  0.716000021      -2.11694464E-06
  0.717000008      -1.76376216E-06
  0.717999995      -1.34567301E-06
  0.718999982      -8.78535559E-07
  0.720000029      -3.80323002E-07
  0.721000016       1.29589168E-07
  0.722000003       6.31210185E-07
  0.722999990       1.10474355E-06
  0.723999977       1.53140434E-06
  0.725000024       1.89416755E-06
  0.726000011       2.17848469E-06
  0.726999998       2.37286577E-06
  0.727999985       2.46937225E-06
  0.728999972       2.46392551E-06
  0.730000019       2.35649691E-06
  0.731000006       2.15111822E-06
  0.731999993       1.85566842E-06
  0.732999980       1.48163906E-06
  0.734000027       1.04360140E-06
  0.735000014       5.58603119E-07
  0.736000001       4.55644056E-08
  0.736999989      -4.75615195E-07
  0.737999976      -9.84730264E-07
  0.739000022      -1.46221589E-06
  0.740000010      -1.88984632E-06
  0.740999997      -2.25149097E-06
  0.741999984      -2.53375970E-06
  0.742999971      -2.72650414E-06
  0.744000018      -2.82324095E-06
  0.745000005      -2.82134306E-06
  0.745999992      -2.72213333E-06
  0.746999979      -2.53077224E-06
  0.748000026      -2.25604367E-06
  0.749000013      -1.90993842E-06
  0.750000000      -1.50712003E-06
  0.750999987      -1.06430923E-06
  0.751999974      -5.99550390E-07
  0.753000021      -1.31525979E-07
  0.754000008       3.21325501E-07
  0.754999995       7.41462600E-07
  0.755999982       1.11298493E-06
  0.757000029       1.42227566E-06
  0.758000016       1.65848405E-06
  0.759000003       1.81397127E-06
  0.759999990       1.88452304E-06
  0.760999978       1.86947068E-06
  0.762000024       1.77166487E-06
  0.763000011       1.59726494E-06
  0.763999999       1.35540620E-06
  0.764999986       1.05778599E-06
  0.765999973       7.18066815E-07
  0.767000020       3.51286332E-07
  0.768000007      -2.68062497E-08
  0.768999994      -4.00464756E-07
  0.769999981      -7.54590758E-07
  0.771000028      -1.07540063E-06
  0.772000015      -1.35093103E-06
  0.773000002      -1.57156728E-06
  0.773999989      -1.73030662E-06
  0.774999976      -1.82309850E-06
  0.776000023      -1.84885903E-06
  0.777000010      -1.80946586E-06
  0.777999997      -1.70958162E-06
  0.778999984      -1.55633882E-06
  0.779999971      -1.35899506E-06
  0.781000018      -1.12841872E-06
  0.782000005      -8.76562240E-07
  0.782999992      -6.15831823E-07
  0.783999979      -3.58591024E-07
  0.785000026      -1.16537308E-07
  0.786000013       9.98142582E-08
  0.787000000       2.81594424E-07
  0.787999988       4.21927552E-07
  0.788999975       5.16200885E-07
  0.790000021       5.62233197E-07
  0.791000009       5.60288015E-07
  0.791999996       5.12981160E-07
  0.792999983       4.25106549E-07
  0.794000030       3.03351385E-07
  0.795000017       1.55874019E-07
  0.796000004      -8.12050782E-09
  0.796999991      -1.78846975E-07
  0.797999978      -3.46510745E-07
  0.799000025      -5.01724628E-07
  0.800000012      -6.36039772E-07
  0.800999999      -7.42331565E-07
  0.801999986      -8.15144517E-07
  0.802999973      -8.50967183E-07
  0.804000020      -8.48347781E-07
  0.805000007      -8.07923925E-07
  0.805999994      -7.32464002E-07
  0.806999981      -6.26554595E-07
  0.808000028      -4.96464850E-07
  0.809000015      -3.49714270E-07
  0.810000002      -1.94726269E-07
  0.810999990      -4.03497076E-08
  0.811999977       1.04582327E-07
  0.813000023       2.31774123E-07
  0.814000010       3.33827359E-07
  0.814999998       4.04725597E-07
  0.815999985       4.40023626E-07
  0.816999972       4.37265527E-07
  0.818000019       3.95905573E-07
  0.819000006       3.17543567E-07
  0.819999993       2.05716802E-07
  0.820999980       6.58189450E-08
  0.822000027      -9.51796864E-08
  0.823000014      -2.69153333E-07
  0.824000001      -4.47123057E-07
  0.824999988      -6.19811146E-07
  0.825999975      -7.78036508E-07
  0.827000022      -9.13228519E-07
  0.828000009      -1.01790863E-06
  0.828999996      -1.08597271E-06
  0.829999983      -1.11316899E-06
  0.830999970      -1.09727148E-06
  0.832000017      -1.03819298E-06
  0.833000004      -9.38098083E-07
  0.833999991      -8.01290469E-07
  0.834999979      -6.34004891E-07
  0.836000025      -4.44163476E-07
  0.837000012      -2.41081636E-07
  0.838000000      -3.48410154E-08
  0.838999987       1.64068368E-07
  0.839999974       3.45219149E-07
  0.841000021       4.98933389E-07
  0.842000008       6.16662533E-07
  0.842999995       6.91375419E-07
  0.843999982       7.18175386E-07
  0.845000029       6.94274433E-07
  0.846000016       6.19417392E-07
  0.847000003       4.95854522E-07
  0.847999990       3.28338103E-07
  0.848999977       1.23880469E-07
  0.850000024      -1.08498440E-07
  0.851000011      -3.58173651E-07
  0.851999998      -6.13326392E-07
  0.852999985      -8.61610545E-07
  0.853999972      -1.09056680E-06
  0.855000019      -1.28835563E-06
  0.856000006      -1.44426974E-06