   0.00000000       0.00000000    
   1.00000005E-03   0.00000000    
   2.00000009E-03   0.00000000    
   3.00000003E-03   0.00000000    
   4.00000019E-03   0.00000000    
   4.99999989E-03   0.00000000    
   6.00000005E-03   0.00000000    
   7.00000022E-03   0.00000000    
   8.00000038E-03   0.00000000    
   8.99999961E-03   0.00000000    
   9.99999978E-03   0.00000000    
   1.09999999E-02   0.00000000    
   1.20000001E-02   0.00000000    
   1.30000003E-02   0.00000000    
   1.40000004E-02   1.64877450E-38
   1.49999997E-02  -1.66230768E-38
   1.60000008E-02  -6.62245807E-37
   1.70000009E-02  -5.17505218E-36
   1.79999992E-02  -1.96964424E-35
   1.89999994E-02  -5.52410713E-35
   1.99999996E-02  -1.36591812E-34
   2.09999997E-02  -3.09927695E-34
   2.19999999E-02  -6.57227294E-34
   2.30000000E-02  -1.31234696E-33
   2.40000002E-02  -2.45927267E-33
   2.50000004E-02  -4.30239381E-33
   2.60000005E-02  -6.93970796E-33
   2.70000007E-02  -1.00311016E-32
   2.80000009E-02  -1.20887780E-32
   2.89999992E-02  -9.07458423E-33
   2.99999993E-02   8.17788481E-33
   3.09999995E-02   5.84413238E-32
   3.20000015E-02   1.77512860E-31
   3.29999998E-02   4.29999031E-31
   3.40000018E-02   9.27336115E-31
   3.50000001E-02   1.85437300E-30
   3.59999985E-02   3.50724858E-30
   3.70000005E-02   6.34552840E-30
   3.79999988E-02   1.10614899E-29
   3.90000008E-02   1.86688214E-29
   3.99999991E-02   3.06115912E-29
   4.10000011E-02   4.88918171E-29
   4.19999994E-02   7.62100650E-29
   4.30000015E-02   1.16107816E-28
   4.39999998E-02   1.73092809E-28
   4.50000018E-02   2.52718770E-28
   4.60000001E-02   3.61579553E-28
   4.69999984E-02   5.07164473E-28
   4.80000004E-02   6.97508174E-28
   4.89999987E-02   9.40555622E-28
   5.00000007E-02   1.24315321E-27
   5.09999990E-02   1.60957236E-27
   5.20000011E-02   2.03947719E-27
   5.29999994E-02   2.52526740E-27
   5.40000014E-02   3.04875808E-27
   5.49999997E-02   3.57722074E-27
   5.60000017E-02   4.05888773E-27
   5.70000000E-02   4.41813106E-27
   5.79999983E-02   4.55066778E-27
   5.90000004E-02   4.31930697E-27
   5.99999987E-02   3.55093488E-27
   6.10000007E-02   2.03563207E-27
   6.19999990E-02  -4.71000998E-28
   6.30000010E-02  -4.24107338E-27
   6.40000030E-02  -9.56184928E-27
   6.49999976E-02  -1.67160674E-26
   6.59999996E-02  -2.59539213E-26
   6.70000017E-02  -3.74557567E-26
   6.80000037E-02  -5.12851016E-26
   6.89999983E-02  -6.73323043E-26
   7.00000003E-02  -8.52501827E-26
   7.10000023E-02  -1.04384318E-25
   7.19999969E-02  -1.23702203E-25
   7.29999989E-02  -1.41727305E-25
   7.40000010E-02  -1.56485808E-25
   7.50000030E-02  -1.65476049E-25
   7.59999976E-02  -1.65672142E-25
   7.69999996E-02  -1.53574751E-25
   7.80000016E-02  -1.25322733E-25
   7.90000036E-02  -7.68790928E-26
   7.99999982E-02  -4.30344578E-27
   8.10000002E-02   9.58802252E-26
   8.20000023E-02   2.26216169E-25
   8.29999968E-02   3.87752844E-25
   8.39999989E-02   5.79393979E-25
   8.50000009E-02   7.97188121E-25
   8.60000029E-02   1.03359346E-24
   8.69999975E-02   1.27676881E-24
   8.79999995E-02   1.50995797E-24
   8.90000015E-02   1.71104956E-24
   9.00000036E-02   1.85240929E-24
   9.09999982E-02   1.90109088E-24
   9.20000002E-02   1.81953904E-24
   9.30000022E-02   1.56689637E-24
   9.39999968E-02   1.10101593E-24
   9.49999988E-02   3.81259877E-25
   9.60000008E-02  -6.27869235E-25
   9.70000029E-02  -1.95226646E-24
   9.79999974E-02  -3.60299754E-24
   9.89999995E-02  -5.57044899E-24
  0.100000001      -7.81808804E-24
  0.101000004      -1.02761715E-23
  0.101999998      -1.28358406E-23
  0.103000000      -1.53441540E-23
  0.104000002      -1.76007048E-23
  0.104999997      -1.93565467E-23
  0.105999999      -2.03162212E-23
  0.107000001      -2.01436673E-23
  0.108000003      -1.84727669E-23
  0.108999997      -1.49231847E-23
  0.109999999      -9.12197336E-24
  0.111000001      -7.31138375E-25
  0.112000003       1.05189640E-23
  0.112999998       2.47909653E-23
  0.114000000       4.20976569E-23
  0.115000002       6.22566565E-23
  0.115999997       8.48448618E-23
  0.116999999       1.09155655E-22
  0.118000001       1.34162357E-22
  0.119000003       1.58492026E-22
  0.119999997       1.80414206E-22
  0.120999999       1.97849231E-22
  0.122000001       2.08400820E-22
  0.123000003       2.09417541E-22
  0.123999998       1.98086571E-22
  0.125000000       1.71562530E-22
  0.126000002       1.27132445E-22
  0.127000004       6.24157982E-23
  0.128000006      -2.44036992E-23
  0.128999993      -1.34320697E-22
  0.129999995      -2.67234621E-22
  0.130999997      -4.21672407E-22
  0.131999999      -5.94523393E-22
  0.133000001      -7.80805739E-22
  0.134000003      -9.73485457E-22
  0.135000005      -1.16337228E-21
  0.136000007      -1.33911676E-21
  0.136999995      -1.48733314E-21
  0.137999997      -1.59287057E-21
  0.138999999      -1.63925124E-21
  0.140000001      -1.60928978E-21
  0.141000003      -1.48589911E-21
  0.142000005      -1.25307897E-21
  0.143000007      -8.97071922E-22
  0.143999994      -4.07658072E-22
  0.144999996       2.20455649E-22
  0.145999998       9.86209417E-22
  0.147000000       1.88080131E-21
  0.148000002       2.88642413E-21
  0.149000004       3.97522646E-21
  0.150000006       5.10860849E-21
  0.150999993       6.23696484E-21
  0.151999995       7.29998684E-21
  0.152999997       8.22762709E-21
  0.153999999       8.94181677E-21
  0.155000001       9.35899933E-21
  0.156000003       9.39351150E-21
  0.157000005       8.96180239E-21
  0.158000007       7.98742805E-21
  0.158999994       6.40671054E-21
  0.159999996       4.17488153E-21
  0.160999998       1.27246571E-21
  0.162000000      -2.28839880E-21
  0.163000003      -6.45806965E-21
  0.164000005      -1.11443532E-20
  0.165000007      -1.62087560E-20
  0.165999994      -2.14645129E-20
  0.166999996      -2.66768559E-20
  0.167999998      -3.15659683E-20
  0.169000000      -3.58130140E-20
  0.170000002      -3.90695207E-20
  0.171000004      -4.09702687E-20
  0.172000006      -4.11497119E-20
  0.172999993      -3.92617110E-20
  0.173999995      -3.50021605E-20
  0.174999997      -2.81338602E-20
  0.175999999      -1.85127302E-20
  0.177000001      -6.11415477E-21
  0.178000003       8.94189997E-21
  0.179000005       2.63686390E-20
  0.180000007       4.56948206E-20
  0.180999994       6.62536451E-20
  0.181999996       8.71800544E-20
  0.182999998       1.07418172E-19
  0.184000000       1.25740539E-19
  0.185000002       1.40780428E-19
  0.186000004       1.51077986E-19
  0.187000006       1.55140464E-19
  0.187999994       1.51516082E-19
  0.188999996       1.38880213E-19
  0.189999998       1.16131673E-19
  0.191000000       8.24959826E-20
  0.192000002       3.76314963E-20
  0.193000004      -1.82666602E-20
  0.194000006      -8.43707681E-20
  0.194999993      -1.59139352E-19
  0.195999995      -2.40257763E-19
  0.196999997      -3.24607748E-19
  0.197999999      -4.08273008E-19
  0.199000001      -4.86587599E-19
  0.200000003      -5.54232310E-19
  0.201000005      -6.05383660E-19
  0.202000007      -6.33917514E-19
  0.202999994      -6.33667137E-19
  0.203999996      -5.98732870E-19
  0.204999998      -5.23837352E-19
  0.206000000      -4.04716778E-19
  0.207000002      -2.38535211E-19
  0.208000004      -2.43054615E-20
  0.209000006       2.36703419E-19
  0.209999993       5.40594584E-19
  0.210999995       8.80532935E-19
  0.211999997       1.24652220E-18
  0.213000000       1.62529648E-18
  0.214000002       2.00035226E-18
  0.215000004       2.35214453E-18
  0.216000006       2.65846729E-18
  0.216999993       2.89503268E-18
  0.217999995       3.03625639E-18
  0.218999997       3.05624811E-18
  0.219999999       2.92999615E-18
  0.221000001       2.63472349E-18
  0.222000003       2.15138014E-18
  0.223000005       1.46622789E-18
  0.224000007       5.72455151E-19
  0.224999994      -5.28246380E-19
  0.225999996      -1.82422359E-18
  0.226999998      -3.29261166E-18
  0.228000000      -4.89838368E-18
  0.229000002      -6.59379539E-18
  0.230000004      -8.31831849E-18
  0.231000006      -9.99914122E-18
  0.231999993      -1.15523184E-17
  0.232999995      -1.28846193E-17
  0.233999997      -1.38961032E-17
  0.234999999      -1.44834279E-17
  0.236000001      -1.45438684E-17
  0.237000003      -1.39799661E-17
  0.238000005      -1.27047216E-17
  0.238999993      -1.06471678E-17
  0.239999995      -7.75815013E-18
  0.240999997      -4.01608761E-18
  0.241999999       5.67541026E-19
  0.243000001       5.94327492E-18
  0.244000003       1.20196093E-17
  0.245000005       1.86601094E-17
  0.246000007       2.56819993E-17
  0.246999994       3.28565271E-17
  0.247999996       3.99113554E-17
  0.248999998       4.65351464E-17
  0.250000000       5.23845574E-17
  0.250999987       5.70936272E-17
  0.252000004       6.02855318E-17
  0.252999991       6.15866009E-17
  0.254000008       6.06422783E-17
  0.254999995       5.71346553E-17
  0.256000012       5.08010789E-17
  0.256999999       4.14532002E-17
  0.257999986       2.89957311E-17
  0.259000003       1.34440573E-17
  0.259999990      -5.06014588E-18
  0.261000007      -2.62362467E-17
  0.261999995      -4.96558871E-17
  0.263000011      -7.47389910E-17
  0.263999999      -1.00755403E-16
  0.264999986      -1.26832834E-16
  0.266000003      -1.51971687E-16
  0.266999990      -1.75067033E-16
  0.268000007      -1.94937830E-16
  0.268999994      -2.10363213E-16
  0.270000011      -2.20125268E-16
  0.270999998      -2.23057339E-16
  0.272000015      -2.18096862E-16
  0.273000002      -2.04340875E-16
  0.273999989      -1.81102566E-16
  0.275000006      -1.47966611E-16
  0.275999993      -1.04840954E-16
  0.277000010      -5.20024529E-17
  0.277999997       9.86618352E-18
  0.279000014       7.96507300E-17
  0.280000001       1.55793473E-16
  0.280999988       2.36297099E-16
  0.282000005       3.18746254E-16
  0.282999992       4.00348217E-16
  0.284000009       4.77993027E-16
  0.284999996       5.48333449E-16
  0.286000013       6.07883730E-16
  0.287000000       6.53135671E-16
  0.287999988       6.80689335E-16
  0.289000005       6.87394924E-16
  0.289999992       6.70501858E-16
  0.291000009       6.27809703E-16
  0.291999996       5.57815506E-16
  0.293000013       4.59851117E-16
  0.294000000       3.34204155E-16
  0.294999987       1.82216057E-16
  0.296000004       6.35062952E-18
  0.296999991      -1.89772583E-16
  0.298000008      -4.01385567E-16
  0.298999995      -6.22623850E-16
  0.300000012      -8.46625948E-16
  0.300999999      -1.06568180E-15
  0.301999986      -1.27142959E-15
  0.303000003      -1.45509852E-15
  0.303999990      -1.60779294E-15
  0.305000007      -1.72081117E-15
  0.305999994      -1.78599078E-15
  0.307000011      -1.79606857E-15
  0.307999998      -1.74504457E-15
  0.308999985      -1.62853445E-15
  0.310000002      -1.44409694E-15
  0.310999990      -1.19152061E-15
  0.312000006      -8.73054541E-16
  0.312999994      -4.93568481E-16
  0.314000010      -6.06296125E-17
  0.314999998       4.15515850E-16
  0.316000015       9.22064820E-16
  0.317000002       1.44388836E-15
  0.317999989       1.96387405E-15
  0.319000006       2.46337552E-15
  0.319999993       2.92276448E-15
  0.321000010       3.32207211E-15
  0.321999997       3.64170338E-15
  0.323000014       3.86320419E-15
  0.324000001       3.97005740E-15
  0.324999988       3.94847585E-15
  0.326000005       3.78816682E-15
  0.326999992       3.48303167E-15
  0.328000009       3.03176745E-15
  0.328999996       2.43834083E-15
  0.330000013       1.71230177E-15
  0.331000000       8.68910802E-16
  0.331999987      -7.09420269E-17
  0.333000004      -1.08104126E-15
  0.333999991      -2.13038273E-15
  0.335000008      -3.18394137E-15
  0.335999995      -4.20366189E-15
  0.337000012      -5.14965327E-15
  0.338000000      -5.98155440E-15
  0.338999987      -6.66004092E-15
  0.340000004      -7.14841597E-15
  0.340999991      -7.41423694E-15
  0.342000008      -7.43091501E-15
  0.342999995      -7.17922171E-15
  0.344000012      -6.64863647E-15
  0.344999999      -5.83846343E-15
  0.345999986      -4.75866117E-15
  0.347000003      -3.43032017E-15
  0.347999990      -1.88574479E-15
  0.349000007      -1.68098347E-16
  0.349999994       1.66941046E-15
  0.351000011       3.56480465E-15
  0.351999998       5.44907222E-15
  0.352999985       7.24832182E-15
  0.354000002       8.88630905E-15
  0.354999989       1.02872744E-14
  0.356000006       1.13789881E-14
  0.356999993       1.20959125E-14
  0.358000010       1.23823605E-14
  0.358999997       1.21955194E-14
  0.360000014       1.15082089E-14
  0.361000001       1.03112429E-14
  0.361999989       8.61526443E-15
  0.363000005       6.45193127E-15
  0.363999993       3.87435496E-15
  0.365000010       9.56710056E-16
  0.365999997      -2.20704302E-15
  0.367000014      -5.50534104E-15
  0.368000001      -8.81209964E-15
  0.368999988      -1.19906458E-14
  0.370000005      -1.48984066E-14
  0.370999992      -1.73922376E-14
  0.372000009      -1.93342284E-14
  0.372999996      -2.05977813E-14
  0.374000013      -2.10737630E-14
  0.375000000      -2.06764469E-14
  0.375999987      -1.93490277E-14
  0.377000004      -1.70684305E-14
  0.377999991      -1.38491522E-14
  0.379000008      -9.74590519E-15
  0.379999995      -4.85485573E-15
  0.381000012       6.86719680E-16
  0.381999999       6.70248108E-15
  0.382999986       1.29808358E-14
  0.384000003       1.92805146E-14
  0.384999990       2.53378353E-14
  0.386000007       3.08755164E-14
  0.386999995       3.56127989E-14
  0.388000011       3.92765959E-14
  0.388999999       4.16133158E-14
  0.389999986       4.24009210E-14
  0.391000003       4.14607618E-14
  0.391999990       3.86687041E-14
  0.393000007       3.39650352E-14
  0.393999994       2.73626421E-14
  0.395000011       1.89529805E-14
  0.395999998       8.90941949E-15
  0.397000015      -2.51240560E-15
  0.398000002      -1.49775110E-14
  0.398999989      -2.80778971E-14
  0.400000006      -4.13423636E-14
  0.400999993      -5.42496989E-14
  0.402000010      -6.62450102E-14
  0.402999997      -7.67588101E-14
  0.404000014      -8.52283738E-14
  0.405000001      -9.11206467E-14
  0.405999988      -9.39560251E-14
  0.407000005      -9.33320600E-14
  0.407999992      -8.89461776E-14
  0.409000009      -8.06164556E-14
  0.409999996      -6.82994514E-14
  0.411000013      -5.21041408E-14
  0.412000000      -3.23011068E-14
  0.412999988      -9.32619697E-15
  0.414000005       1.62219515E-14
  0.414999992       4.35909108E-14
  0.416000009       7.18902206E-14
  0.416999996       1.00113846E-13
  0.418000013       1.27168987E-13
  0.419000000       1.51910697E-13
  0.419999987       1.73181443E-13
  0.421000004       1.89854453E-13
  0.421999991       2.00879556E-13
  0.423000008       2.05329907E-13
  0.423999995       2.02447854E-13
  0.425000012       1.91688232E-13
  0.425999999       1.72757086E-13
  0.426999986       1.45644022E-13
  0.428000003       1.10646471E-13
  0.428999990       6.83842631E-14
  0.430000007       1.98031712E-14
  0.430999994      -3.38335791E-14
  0.432000011      -9.09664732E-14
  0.432999998      -1.49773748E-13
  0.433999985      -2.08218059E-13
  0.435000002      -2.64104954E-13
  0.435999990      -3.15151930E-13
  0.437000006      -3.59066292E-13
  0.437999994      -3.93629655E-13
  0.439000010      -4.16786153E-13
  0.439999998      -4.26731729E-13
  0.441000015      -4.22001030E-13
  0.442000002      -4.01548451E-13
  0.442999989      -3.64819964E-13
  0.444000006      -3.11812316E-13
  0.444999993      -2.43116508E-13
  0.446000010      -1.59942629E-13
  0.446999997      -6.41237551E-14
  0.448000014       4.19025945E-14
  0.449000001       1.55136781E-13
  0.449999988       2.72083002E-13
  0.451000005       3.88838457E-13
  0.451999992       5.01203950E-13
  0.453000009       6.04813617E-13
  0.453999996       6.95280313E-13
  0.455000013       7.68352396E-13
  0.456000000       8.20077079E-13
  0.456999987       8.46965076E-13
  0.458000004       8.46150190E-13
  0.458999991       8.15537958E-13
  0.460000008       7.53937223E-13
  0.460999995       6.61168548E-13
  0.462000012       5.38143911E-13
  0.463000000       3.86912805E-13
  0.463999987       2.10670809E-13
  0.465000004       1.37277139E-14
  0.465999991      -1.98566397E-13
  0.467000008      -4.19937251E-13
  0.467999995      -6.43343668E-13
  0.469000012      -8.61172733E-13
  0.469999999      -1.06546857E-12
  0.470999986      -1.24818905E-12
  0.472000003      -1.40148255E-12
  0.472999990      -1.51797650E-12
  0.474000007      -1.59106831E-12
  0.474999994      -1.61520840E-12
  0.476000011      -1.58616468E-12
  0.476999998      -1.50125778E-12
  0.477999985      -1.35955689E-12
  0.479000002      -1.16202729E-12
  0.479999989      -9.11620280E-13
  0.481000006      -6.13299450E-13
  0.481999993      -2.73998380E-13
  0.483000010       9.74933025E-14
  0.483999997       4.90715812E-13
  0.485000014       8.93794912E-13
  0.486000001       1.29376241E-12
  0.486999989       1.67693474E-12
  0.488000005       2.02933894E-12
  0.488999993       2.33717494E-12
  0.490000010       2.58729930E-12
  0.490999997       2.76771574E-12
  0.492000014       2.86805410E-12
  0.493000001       2.88002174E-12
  0.493999988       2.79781016E-12
  0.495000005       2.61843910E-12
  0.495999992       2.34202349E-12
  0.497000009       1.97194886E-12
  0.497999996       1.51494453E-12
  0.499000013       9.81046516E-13
  0.500000000       3.83444632E-13
  0.500999987      -2.61786551E-13
  0.501999974      -9.36070232E-13
  0.503000021      -1.61881684E-12
  0.504000008      -2.28800789E-12
  0.504999995      -2.92086060E-12
  0.505999982      -3.49455360E-12
  0.507000029      -3.98699389E-12
  0.508000016      -4.37759638E-12
  0.509000003      -4.64805581E-12
  0.509999990      -4.78308062E-12
  0.510999978      -4.77106072E-12
  0.512000024      -4.60464566E-12
  0.513000011      -4.28120863E-12
  0.513999999      -3.80317262E-12
  0.514999986      -3.17818189E-12
  0.515999973      -2.41910788E-12
  0.517000020      -1.54387635E-12
  0.518000007      -5.75118187E-13
  0.518999994       4.60356633E-13
  0.519999981       1.53225013E-12
  0.521000028       2.60761638E-12
  0.522000015       3.65183101E-12
  0.523000002       4.62966037E-12
  0.523999989       5.50640176E-12
  0.524999976       6.24905423E-12
  0.526000023       6.82748996E-12
  0.527000010       7.21557709E-12
  0.527999997       7.39221965E-12
  0.528999984       7.34227609E-12
  0.529999971       7.05731784E-12
  0.531000018       6.53619259E-12
  0.532000005       5.78537435E-12
  0.532999992       4.81907222E-12
  0.533999979       3.65908432E-12
  0.535000026       2.33439461E-12
  0.536000013       8.80514737E-13
  0.537000000      -6.61417915E-13
  0.537999988      -2.24576499E-12
  0.538999975      -3.82370394E-12
  0.540000021      -5.34470298E-12
  0.541000009      -6.75810753E-12
  0.541999996      -8.01479196E-12
  0.542999983      -9.06881948E-12
  0.544000030      -9.87906285E-12
  0.545000017      -1.04107200E-11
  0.546000004      -1.06366764E-11
  0.546999991      -1.05386628E-11
  0.547999978      -1.01081617E-11
  0.549000025      -9.34702142E-12
  0.550000012      -8.26775020E-12
  0.550999999      -6.89347017E-12
  0.551999986      -5.25751751E-12
  0.552999973      -3.40269588E-12
  0.554000020      -1.38019338E-12
  0.555000007       7.51811482E-13
  0.555999994       2.92981481E-12
  0.556999981       5.08687970E-12
  0.558000028       7.15469827E-12
  0.559000015       9.06575856E-12
  0.560000002       1.07555492E-11
  0.560999990       1.21647276E-11
  0.561999977       1.32411807E-11
  0.563000023       1.39419058E-11
  0.564000010       1.42346404E-11
  0.564999998       1.40991871E-11
  0.565999985       1.35283755E-11
  0.566999972       1.25286231E-11
  0.568000019       1.11200667E-11
  0.569000006       9.33624445E-12
  0.569999993       7.22333738E-12
  0.570999980       4.83897731E-12
  0.572000027       2.25065257E-12
  0.573000014      -4.66240544E-13
  0.574000001      -3.23064622E-12
  0.574999988      -5.95833192E-12
  0.575999975      -8.56451975E-12
  0.577000022      -1.09665940E-11
  0.578000009      -1.30867817E-11
  0.578999996      -1.48547286E-11
  0.579999983      -1.62098755E-11
  0.580999970      -1.71035599E-11
  0.582000017      -1.75007595E-11
  0.583000004      -1.73814175E-11
  0.583999991      -1.67412976E-11
  0.584999979      -1.55923434E-11
  0.586000025      -1.39625065E-11
  0.587000012      -1.18950500E-11
  0.588000000      -9.44734829E-12
  0.588999987      -6.68920865E-12
  0.589999974      -3.70076886E-12
  0.591000021      -5.70039892E-13
  0.592000008       2.60983336E-12
  0.592999995       5.74350116E-12
  0.593999982       8.73643085E-12
  0.595000029       1.14979198E-11
  0.596000016       1.39440039E-11
  0.597000003       1.60001543E-11
  0.597999990       1.76036720E-11
  0.598999977       1.87057071E-11
  0.600000024       1.92728195E-11
  0.601000011       1.92880364E-11
  0.601999998       1.87513650E-11
  0.602999985       1.76797414E-11
  0.603999972       1.61064218E-11
  0.605000019       1.40798345E-11
  0.606000006       1.16619275E-11
  0.606999993       8.92607949E-12
  0.607999980       5.95464563E-12
  0.609000027       2.83621737E-12
  0.610000014      -3.37298765E-13
  0.611000001      -3.47368141E-12
  0.611999989      -6.48337113E-12
  0.612999976      -9.28231450E-12
  0.614000022      -1.17945783E-11
  0.615000010      -1.39546430E-11
  0.615999997      -1.57092932E-11
  0.616999984      -1.70190476E-11
  0.617999971      -1.78590788E-11
  0.619000018      -1.82195942E-11
  0.620000005      -1.81056749E-11
  0.620999992      -1.75365902E-11
  0.621999979      -1.65446233E-11
  0.623000026      -1.51734510E-11
  0.624000013      -1.34761577E-11
  0.625000000      -1.15129694E-11
  0.625999987      -9.34879778E-12
  0.626999974      -7.05069770E-12
  0.628000021      -4.68534109E-12
  0.629000008      -2.31661391E-12
  0.629999995      -3.43063251E-15
  0.630999982       2.20214537E-12
  0.632000029       4.25640209E-12
  0.633000016       6.12504318E-12
  0.634000003       7.78377536E-12
  0.634999990       9.21840642E-12
  0.635999978       1.04244547E-11
  0.637000024       1.14062986E-11
  0.638000011       1.21759131E-11
  0.638999999       1.27512566E-11
  0.639999986       1.31544012E-11
  0.640999973       1.34094905E-11
  0.642000020       1.35406391E-11
  0.643000007       1.35698770E-11
  0.643999994       1.35152523E-11
  0.644999981       1.33892012E-11
  0.646000028       1.31972697E-11
  0.647000015       1.29372702E-11
  0.648000002       1.25989410E-11
  0.648999989       1.21641404E-11
  0.649999976       1.16075916E-11
  0.651000023       1.08981713E-11
  0.652000010       1.00006982E-11
  0.652999997       8.87816296E-12
  0.653999984       7.49430899E-12
  0.654999971       5.81645452E-12
  0.656000018       3.81843255E-12
  0.657000005       1.48350256E-12
  0.657999992      -1.19290211E-12
  0.658999979      -4.20075086E-12
  0.660000026      -7.51345080E-12
  0.661000013      -1.10864746E-11
  0.662000000      -1.48566923E-11
  0.662999988      -1.87424989E-11
  0.663999975      -2.26448010E-11
  0.665000021      -2.64488830E-11
  0.666000009      -3.00271509E-11
  0.666999996      -3.32427072E-11
  0.667999983      -3.59536775E-11
  0.669000030      -3.80181685E-11
  0.670000017      -3.92996885E-11
  0.671000004      -3.96728796E-11
  0.671999991      -3.90293284E-11
  0.672999978      -3.72832355E-11
  0.674000025      -3.43767272E-11
  0.675000012      -3.02845631E-11
  0.675999999      -2.50180137E-11
  0.676999986      -1.86277088E-11
  0.677999973      -1.12052676E-11
  0.679000020      -2.88357272E-12
  0.680000007       6.16442661E-12
  0.680999994       1.57284186E-11
  0.681999981       2.55649633E-11
  0.683000028       3.54031839E-11
  0.684000015       4.49518270E-11
  0.685000002       5.39075035E-11
  0.685999990       6.19638993E-11
  0.686999977       6.88216914E-11
  0.688000023       7.41988623E-11
  0.689000010       7.78410600E-11
  0.689999998       7.95316868E-11
  0.690999985       7.91012880E-11
  0.691999972       7.64359340E-11
  0.693000019       7.14842144E-11
  0.694000006       6.42625606E-11
  0.694999993       5.48586038E-11
  0.695999980       4.34323480E-11
  0.697000027       3.02150180E-11
  0.698000014       1.55055031E-11
  0.699000001      -3.35631696E-13
  0.699999988      -1.68944338E-11
  0.700999975      -3.37140246E-11
  0.702000022      -5.03069982E-11
  0.703000009      -6.61694033E-11
  0.703999996      -8.07959186E-11
  0.704999983      -9.36958081E-11
  0.705999970      -1.04409141E-10
  0.707000017      -1.12522720E-10
  0.708000004      -1.17685250E-10
  0.708999991      -1.19621160E-10
  0.709999979      -1.18142593E-10
  0.711000025      -1.13159086E-10
  0.712000012      -1.04684504E-10
  0.713000000      -9.28409502E-11
  0.713999987      -7.78593509E-11
  0.714999974      -6.00765618E-11
  0.716000021      -3.99289976E-11
  0.717000008      -1.79428139E-11
  0.717999995       5.27915992E-12
  0.718999982       2.90734277E-11
  0.720000029       5.27343724E-11
  0.721000016       7.55348284E-11
  0.722000003       9.67481373E-11
  0.722999990       1.15670903E-10
  0.723999977       1.31645930E-10
  0.725000024       1.44084439E-10
  0.726000011       1.52486912E-10
  0.726999998       1.56461857E-10
  0.727999985       1.55741753E-10
  0.728999972       1.50195648E-10
  0.730000019       1.39837850E-10
  0.731000006       1.24832297E-10
  0.731999993       1.05492420E-10
  0.732999980       8.22761789E-11
  0.734000027       5.57764807E-11
  0.735000014       2.67069977E-11
  0.736000001      -4.11625421E-12
  0.736999989      -3.57971153E-11
  0.737999976      -6.73846950E-11
  0.739000022      -9.79012565E-11
  0.740000010      -1.26371802E-10
  0.740999997      -1.51854432E-10
  0.741999984      -1.73470571E-10
  0.742999971      -1.90434099E-10
  0.744000018      -2.02078423E-10
  0.745000005      -2.07880560E-10
  0.745999992      -2.07481435E-10
  0.746999979      -2.00701664E-10
  0.748000026      -1.87552127E-10
  0.749000013      -1.68238909E-10
  0.750000000      -1.43162301E-10
  0.750999987      -1.12909744E-10
  0.751999974      -7.82427734E-11
  0.753000021      -4.00782255E-11
  0.754000008       5.35854347E-13
  0.754999995       4.24490061E-11
  0.755999982       8.44410097E-11
  0.757000029       1.25257485E-10
  0.758000016       1.63647457E-10
  0.759000003       1.98401670E-10
  0.759999990       2.28390529E-10
  0.760999978       2.52600441E-10
  0.762000024       2.70167416E-10
  0.763000011       2.80406837E-10
  0.763999999       2.82838308E-10
  0.764999986       2.77204704E-10
  0.765999973       2.63484845E-10
  0.767000020       2.41899112E-10
  0.768000007       2.12907678E-10
  0.768999994       1.77201420E-10
  0.769999981       1.35685463E-10
  0.771000028       8.94558108E-11
  0.772000015       3.97696182E-11
  0.773000002      -1.19900079E-11
  0.773999989      -6.43538001E-11
  0.774999976      -1.15809487E-10
  0.776000023      -1.64847053E-10
  0.777000010      -2.10004736E-10
  0.777999997      -2.49914339E-10
  0.778999984      -2.83344431E-10
  0.779999971      -3.09239995E-10
  0.781000018      -3.26757260E-10
  0.782000005      -3.35292655E-10
  0.782999992      -3.34504702E-10
  0.783999979      -3.24328120E-10
  0.785000026      -3.04979597E-10
  0.786000013      -2.76954848E-10
  0.787000000      -2.41017012E-10
  0.787999988      -1.98176558E-10
  0.788999975      -1.49663087E-10
  0.790000021      -9.68900168E-11
  0.791000009      -4.14130084E-11
  0.791999996       1.51166822E-11
  0.792999983       7.10024123E-11
  0.794000030       1.24554450E-10
  0.795000017       1.74142797E-10
  0.796000004       2.18248780E-10
  0.796999991       2.55513777E-10
  0.797999978       2.84783558E-10
  0.799000025       3.05146713E-10
  0.800000012       3.15965865E-10
  0.800999999       3.16900589E-10
  0.801999986       3.07921272E-10
  0.802999973       2.89313129E-10
  0.804000020       2.61670324E-10
  0.805000007       2.25880190E-10
  0.805999994       1.83097842E-10
  0.806999981       1.34711992E-10
  0.808000028       8.23027757E-11
  0.809000015       2.75929782E-11
  0.810000002      -2.76059089E-11
  0.810999990      -8.14512069E-11
  0.811999977      -1.32128253E-10
  0.813000023      -1.77909465E-10
  0.814000010      -2.17211346E-10
  0.814999998      -2.48647547E-10
  0.815999985      -2.71076328E-10
  0.816999972      -2.83640694E-10
  0.818000019      -2.85799773E-10
  0.819000006      -2.77350448E-10
  0.819999993      -2.58438465E-10
  0.820999980      -2.29558234E-10
  0.822000027      -1.91541394E-10
  0.823000014      -1.45534390E-10
  0.824000001      -9.29654617E-11
  0.824999988      -3.55021013E-11
  0.825999975       2.49997766E-11
  0.827000022       8.65534450E-11
  0.828000009       1.47104051E-10
  0.828999996       2.04594286E-10
  0.829999983       2.57031035E-10
  0.830999970       3.02550845E-10
  0.832000017       3.39482081E-10
  0.833000004       3.66401742E-10
  0.833999991       3.82184978E-10
  0.834999979       3.86045584E-10
  0.836000025       3.77566201E-10
  0.837000012       3.56716962E-10
  0.838000000       3.23861854E-10
  0.838999987       2.79752527E-10
  0.839999974       2.25509555E-10
  0.841000021       1.62591510E-10
  0.842000008       9.27528609E-11
  0.842999995       1.79918754E-11
  0.843999982      -5.95100080E-11
  0.845000029      -1.37455339E-10
  0.846000016      -2.13502285E-10
  0.847000003      -2.85338531E-10
  0.847999990      -3.50754981E-10
  0.848999977      -4.07716944E-10
  0.850000024      -4.54430521E-10
  0.851000011      -4.89401797E-10
  0.851999998      -5.11487186E-10
  0.852999985      -5.19932819E-10
  0.853999972      -5.14402076E-10
  0.855000019      -4.94989771E-10
  0.856000006      -4.62222760E-10