   0.00000000       0.00000000    
   1.00000005E-03   0.00000000    
   2.00000009E-03   0.00000000    
   3.00000003E-03   0.00000000    
   4.00000019E-03  -8.18725017E-19
   4.99999989E-03  -7.92068284E-18
   6.00000005E-03  -4.27499117E-17
   7.00000022E-03  -1.69414213E-16
   8.00000038E-03  -5.48659504E-16
   8.99999961E-03  -1.53520211E-15
   9.99999978E-03  -3.83764074E-15
   1.09999999E-02  -8.76070253E-15
   1.20000001E-02  -1.85467605E-14
   1.30000003E-02  -3.68245914E-14
   1.40000004E-02  -6.91598742E-14
   1.49999997E-02  -1.23678479E-13
   1.60000008E-02  -2.11713608E-13
   1.70000009E-02  -3.48382781E-13
   1.79999992E-02  -5.52990271E-13
   1.89999994E-02  -8.49094883E-13
   1.99999996E-02  -1.26407814E-12
   2.09999997E-02  -1.82802601E-12
   2.19999999E-02  -2.57176789E-12
   2.30000000E-02  -3.52387585E-12
   2.40000002E-02  -4.70657931E-12
   2.50000004E-02  -6.13056220E-12
   2.60000005E-02  -7.78870978E-12
   2.70000007E-02  -9.64904458E-12
   2.80000009E-02  -1.16473046E-11
   2.89999992E-02  -1.36794924E-11
   2.99999993E-02  -1.55954104E-11
   3.09999995E-02  -1.71936215E-11
   3.20000015E-02  -1.82191571E-11
   3.29999998E-02  -1.83646830E-11
   3.40000018E-02  -1.72762828E-11
   3.50000001E-02  -1.45645874E-11
   3.59999985E-02  -9.82206851E-12
   3.70000005E-02  -2.64692088E-12
   3.79999988E-02   7.32664623E-12
   3.90000008E-02   2.03919295E-11
   3.99999991E-02   3.67282871E-11
   4.10000011E-02   5.63560969E-11
   4.19999994E-02   7.90906646E-11
   4.30000015E-02   1.04497723E-10
   4.39999998E-02   1.31853986E-10
   4.50000018E-02   1.60116267E-10
   4.60000001E-02   1.87903790E-10
   4.69999984E-02   2.13496970E-10
   4.80000004E-02   2.34856690E-10
   4.89999987E-02   2.49668147E-10
   5.00000007E-02   2.55410526E-10
   5.09999990E-02   2.49453819E-10
   5.20000011E-02   2.29184102E-10
   5.29999994E-02   1.92154043E-10
   5.40000014E-02   1.36254966E-10
   5.49999997E-02   5.99059136E-11
   5.60000017E-02  -3.77493453E-11
   5.70000000E-02  -1.56645225E-10
   5.79999983E-02  -2.95610342E-10
   5.90000004E-02  -4.52207188E-10
   5.99999987E-02  -6.22609186E-10
   6.10000007E-02  -8.01528732E-10
   6.19999990E-02  -9.82208648E-10
   6.30000010E-02  -1.15648957E-09
   6.40000030E-02  -1.31495781E-09
   6.49999976E-02  -1.44718670E-09
   6.59999996E-02  -1.54206869E-09
   6.70000017E-02  -1.58823621E-09
   6.80000037E-02  -1.57456848E-09
   6.89999983E-02  -1.49076185E-09
   7.00000003E-02  -1.32796085E-09
   7.10000023E-02  -1.07941023E-09
   7.19999969E-02  -7.41111006E-10
   7.29999989E-02  -3.12445042E-10
   7.40000010E-02   2.03267861E-10
   7.50000030E-02   7.98313859E-10
   7.59999976E-02   1.46027390E-09
   7.69999996E-02   2.17187623E-09
   7.80000016E-02   2.91106028E-09
   7.90000036E-02   3.65127573E-09
   7.99999982E-02   4.36200498E-09
   8.10000002E-02   5.00956032E-09
   8.20000023E-02   5.55812463E-09
   8.29999968E-02   5.97101302E-09
   8.39999989E-02   6.21215523E-09
   8.50000009E-02   6.24772722E-09
   8.60000029E-02   6.04790173E-09
   8.69999975E-02   5.58863222E-09
   8.79999995E-02   4.85340124E-09
   8.90000015E-02   3.83487686E-09
   9.00000036E-02   2.53634047E-09
   9.09999982E-02   9.72843694E-10
   9.20000002E-02  -8.28008828E-10
   9.30000022E-02  -2.82571455E-09
   9.39999968E-02  -4.96705255E-09
   9.49999988E-02  -7.18680271E-09
   9.60000008E-02  -9.40906109E-09
   9.70000029E-02  -1.15491385E-08
   9.79999974E-02  -1.35160390E-08
   9.89999995E-02  -1.52154485E-08
  0.100000001      -1.65531926E-08
  0.101000004      -1.74390262E-08
  0.101999998      -1.77906561E-08
  0.103000000      -1.75378290E-08
  0.104000002      -1.66263963E-08
  0.104999997      -1.50219854E-08
  0.105999999      -1.27133877E-08
  0.107000001      -9.71522951E-09
  0.108000003      -6.06986950E-09
  0.108999997      -1.84839932E-09
  0.109999999       2.84945845E-09
  0.111000001       7.89657495E-09
  0.112000003       1.31408360E-08
  0.112999998       1.84087661E-08
  0.114000000       2.35103492E-08
  0.115000002       2.82448429E-08
  0.115999997       3.24075629E-08
  0.116999999       3.57973704E-08
  0.118000001       3.82246341E-08
  0.119000003       3.95194029E-08
  0.119999997       3.95394899E-08
  0.120999999       3.81780474E-08
  0.122000001       3.53704976E-08
  0.123000003       3.11002886E-08
  0.123999998       2.54032262E-08
  0.125000000       1.83702458E-08
  0.126000002       1.01481614E-08
  0.127000004       9.38404909E-10
  0.128000006      -9.00639474E-09
  0.128999993      -1.93880130E-08
  0.129999995      -2.98704244E-08
  0.130999997      -4.00894287E-08
  0.131999999      -4.96641199E-08
  0.133000001      -5.82097535E-08
  0.134000003      -6.53515286E-08
  0.135000005      -7.07389916E-08
  0.136000007      -7.40605230E-08
  0.136999995      -7.50571800E-08
  0.137999997      -7.35356380E-08
  0.138999999      -6.93794533E-08
  0.140000001      -6.25580938E-08
  0.141000003      -5.31336433E-08
  0.142000005      -4.12642152E-08
  0.143000007      -2.72042904E-08
  0.143999994      -1.13014353E-08
  0.144999996       6.01045524E-09
  0.145999998       2.42215403E-08
  0.147000000       4.27596056E-08
  0.148000002       6.10068369E-08
  0.149000004       7.83189478E-08
  0.150000006       9.40464417E-08
  0.150999993       1.07557156E-07
  0.151999995       1.18259351E-07
  0.152999997       1.25624709E-07
  0.153999999       1.29210036E-07
  0.155000001       1.28677243E-07
  0.156000003       1.23810551E-07
  0.157000005       1.14530359E-07
  0.158000007       1.00902746E-07
  0.158999994       8.31445917E-08
  0.159999996       6.16237372E-08
  0.160999998       3.68535282E-08
  0.162000000       9.48255785E-09
  0.163000003      -1.97210426E-08
  0.164000005      -4.98901223E-08
  0.165000007      -8.00829838E-08
  0.165999994      -1.09311841E-07
  0.166999996      -1.36573931E-07
  0.167999998      -1.60884184E-07
  0.169000000      -1.81309005E-07
  0.170000002      -1.96999366E-07
  0.171000004      -2.07222513E-07
  0.172000006      -2.11390869E-07
  0.172999993      -2.09087375E-07
  0.173999995      -2.00085836E-07
  0.174999997      -1.84365774E-07
  0.175999999      -1.62121395E-07
  0.177000001      -1.33762995E-07
  0.178000003      -9.99120999E-08
  0.179000005      -6.13891018E-08
  0.180000007      -1.91941645E-08
  0.180999994       2.55183927E-08
  0.181999996       7.14714830E-08
  0.182999998       1.17301468E-07
  0.184000000       1.61598436E-07
  0.185000002       2.02948911E-07
  0.186000004       2.39980125E-07
  0.187000006       2.71404275E-07
  0.187999994       2.96060932E-07
  0.188999996       3.12957127E-07
  0.189999998       3.21302878E-07
  0.191000000       3.20541375E-07
  0.192000002       3.10372769E-07
  0.193000004       2.90770572E-07
  0.194000006       2.61989811E-07
  0.194999993       2.24567188E-07
  0.195999995       1.79312096E-07
  0.196999997       1.27289610E-07
  0.197999999       6.97949076E-08
  0.199000001       8.32084623E-09
  0.200000003      -5.54819835E-08
  0.201000005      -1.19849503E-07
  0.202000007      -1.82954153E-07
  0.202999994      -2.42956446E-07
  0.203999996      -2.98058438E-07
  0.204999998      -3.46557016E-07
  0.206000000      -3.86895266E-07
  0.207000002      -4.17710567E-07
  0.208000004      -4.37877532E-07
  0.209000006      -4.46545698E-07
  0.209999993      -4.43169540E-07
  0.210999995      -4.27529358E-07
  0.211999997      -3.99745119E-07
  0.213000000      -3.60279216E-07
  0.214000002      -3.09930812E-07
  0.215000004      -2.49819635E-07
  0.216000006      -1.81361401E-07
  0.216999993      -1.06234133E-07
  0.217999995      -2.63367657E-08
  0.218999997       5.62592888E-08
  0.219999999       1.39363380E-07
  0.221000001       2.20723763E-07
  0.222000003       2.98088253E-07
  0.223000005       3.69265308E-07
  0.224000007       4.32185658E-07
  0.224999994       4.84959969E-07
  0.225999996       5.25934922E-07
  0.226999998       5.53741472E-07
  0.228000000       5.67338702E-07
  0.229000002       5.66047561E-07
  0.230000004       5.49577578E-07
  0.231000006       5.18041588E-07
  0.231999993       4.71962011E-07
  0.232999995       4.12265052E-07
  0.233999997       3.40264222E-07
  0.234999999       2.57633587E-07
  0.236000001       1.66370725E-07
  0.237000003       6.87497064E-08
  0.238000005      -3.27335030E-08
  0.238999993      -1.35423704E-07
  0.239999995      -2.36573811E-07
  0.240999997      -3.33417205E-07
  0.241999999      -4.23241886E-07
  0.243000001      -5.03465458E-07
  0.244000003      -5.71707119E-07
  0.245000005      -6.25858377E-07
  0.246000007      -6.64146057E-07
  0.246999994      -6.85188866E-07
  0.247999996      -6.88044963E-07
  0.248999998      -6.72248234E-07
  0.250000000      -6.37833011E-07
  0.250999987      -5.85345390E-07
  0.252000004      -5.15841066E-07
  0.252999991      -4.30868454E-07
  0.254000008      -3.32438674E-07
  0.254999995      -2.22981086E-07
  0.256000012      -1.05285352E-07
  0.256999999       1.75666806E-08
  0.257999986       1.42280385E-07
  0.259000003       2.65436000E-07
  0.259999990       3.83581437E-07
  0.261000007       4.93329310E-07
  0.261999995       5.91454409E-07
  0.263000011       6.74989337E-07
  0.263999999       7.41315432E-07
  0.264999986       7.88244904E-07
  0.266000003       8.14094847E-07
  0.266999990       8.17745615E-07
  0.268000007       7.98687324E-07
  0.268999994       7.57046962E-07
  0.270000011       6.93598849E-07
  0.270999998       6.09756057E-07
  0.272000015       5.07542609E-07
  0.273000002       3.89546443E-07
  0.273999989       2.58855152E-07
  0.275000006       1.18975237E-07
  0.275999993      -2.62633240E-08
  0.277000010      -1.72813941E-07
  0.277999997      -3.16529196E-07
  0.279000014      -4.53281643E-07
  0.280000001      -5.79086759E-07
  0.280999988      -6.90223771E-07
  0.282000005      -7.83350117E-07
  0.282999992      -8.55606629E-07
  0.284000009      -9.04709964E-07
  0.284999996      -9.29028431E-07
  0.286000013      -9.27638666E-07
  0.287000000      -9.00361954E-07
  0.287999988      -8.47777471E-07
  0.289000005      -7.71212399E-07
  0.289999992      -6.72708893E-07
  0.291000009      -5.54968381E-07
  0.291999996      -4.21274706E-07
  0.293000013      -2.75398406E-07
  0.294000000      -1.21485371E-07
  0.294999987       3.60674548E-08
  0.296000004       1.92744650E-07
  0.296999991       3.44049226E-07
  0.298000008       4.85640214E-07
  0.298999995       6.13464124E-07
  0.300000012       7.23879737E-07
  0.300999999       8.13768281E-07
  0.301999986       8.80627567E-07
  0.303000003       9.22646620E-07
  0.303999990       9.38757751E-07
  0.305000007       9.28665372E-07
  0.305999994       8.92849812E-07
  0.307000011       8.32545709E-07
  0.307999998       7.49698074E-07
  0.308999985       6.46893852E-07
  0.310000002       5.27275859E-07
  0.310999990       3.94438331E-07
  0.312000006       2.52309974E-07
  0.312999994       1.05027482E-07
  0.314000010      -4.31943725E-08
  0.314999998      -1.88194591E-07
  0.316000015      -3.25992545E-07
  0.317000002      -4.52905709E-07
  0.317999989      -5.65656137E-07
  0.319000006      -6.61460263E-07
  0.319999993      -7.38100084E-07
  0.321000010      -7.93974891E-07
  0.321999997      -8.28130169E-07
  0.323000014      -8.40264477E-07
  0.324000001      -8.30715067E-07
  0.324999988      -8.00422583E-07
  0.326000005      -7.50876779E-07
  0.326999992      -6.84046313E-07
  0.328000009      -6.02297291E-07
  0.328999996      -5.08299252E-07
  0.330000013      -4.04928727E-07
  0.331000000      -2.95168661E-07
  0.331999987      -1.82011448E-07
  0.333000004      -6.83669228E-08
  0.333999991       4.30208580E-08
  0.335000008       1.49644791E-07
  0.335999995       2.49293123E-07
  0.337000012       3.40091788E-07
  0.338000000       4.20532047E-07
  0.338999987       4.89480271E-07
  0.340000004       5.46174817E-07
  0.340999991       5.90208401E-07
  0.342000008       6.21496667E-07
  0.342999995       6.40240557E-07
  0.344000012       6.46878448E-07
  0.344999999       6.42036923E-07
  0.345999986       6.26478823E-07
  0.347000003       6.01054126E-07
  0.347999990       5.66654705E-07
  0.349000007       5.24177153E-07
  0.349999994       4.74491998E-07
  0.351000011       4.18424577E-07
  0.351999998       3.56744891E-07
  0.352999985       2.90169424E-07
  0.354000002       2.19370321E-07
  0.354999989       1.44995610E-07
  0.356000006       6.76930156E-08
  0.356999993      -1.18594725E-08
  0.358000010      -9.29228747E-08
  0.358999997      -1.74667036E-07
  0.360000014      -2.56144091E-07
  0.361000001      -3.36268471E-07
  0.361999989      -4.13806390E-07
  0.363000005      -4.87374791E-07
  0.363999993      -5.55453823E-07
  0.365000010      -6.16410432E-07
  0.365999997      -6.68537382E-07
  0.367000014      -7.10100721E-07
  0.368000001      -7.39402367E-07
  0.368999988      -7.54847918E-07
  0.370000005      -7.55022086E-07
  0.370999992      -7.38764925E-07
  0.372000009      -7.05249931E-07
  0.372999996      -6.54053508E-07
  0.374000013      -5.85218743E-07
  0.375000000      -4.99304178E-07
  0.375999987      -3.97417551E-07
  0.377000004      -2.81231365E-07
  0.377999991      -1.52975957E-07
  0.379000008      -1.54102899E-08
  0.379999995       1.28229232E-07
  0.381000012       2.74303432E-07
  0.381999999       4.18866080E-07
  0.382999986       5.57775763E-07
  0.384000003       6.86826866E-07
  0.384999990       8.01885960E-07
  0.386000007       8.99038582E-07
  0.386999995       9.74732870E-07
  0.388000011       1.02591935E-06
  0.388999999       1.05017989E-06
  0.389999986       1.04583842E-06
  0.391000003       1.01205012E-06
  0.391999990       9.48866443E-07
  0.393000007       8.57268560E-07
  0.393999994       7.39167604E-07
  0.395000011       5.97374822E-07
  0.395999998       4.35535355E-07
  0.397000015       2.58031463E-07
  0.398000002       6.98557230E-08
  0.398999989      -1.23540929E-07
  0.400000006      -3.16421790E-07
  0.400999993      -5.02951252E-07
  0.402000010      -6.77390403E-07
  0.402999997      -8.34292223E-07
  0.404000014      -9.68691211E-07
  0.405000001      -1.07627955E-06
  0.405999988      -1.15356102E-06
  0.407000005      -1.19798108E-06
  0.407999992      -1.20802224E-06
  0.409000009      -1.18326500E-06
  0.409999996      -1.12441148E-06
  0.411000013      -1.03326579E-06
  0.412000000      -9.12678502E-07
  0.412999988      -7.66450512E-07
  0.414000005      -5.99205066E-07
  0.414999992      -4.16227437E-07
  0.416000009      -2.23283209E-07
  0.416999996      -2.64173039E-08
  0.418000013       1.68255369E-07
  0.419000000       3.54760601E-07
  0.419999987       5.27470092E-07
  0.421000004       6.81292420E-07
  0.421999991       8.11842369E-07
  0.423000008       9.15582802E-07
  0.423999995       9.89933369E-07
  0.425000012       1.03334446E-06
  0.425999999       1.04532899E-06
  0.426999986       1.02645492E-06
  0.428000003       9.78301046E-07
  0.428999990       9.03373916E-07
  0.430000007       8.04990236E-07
  0.430999994       6.87134843E-07
  0.432000011       5.54293479E-07
  0.432999998       4.11273675E-07
  0.433999985       2.63015835E-07
  0.435000002       1.14406156E-07
  0.435999990      -2.99013010E-08
  0.437000006      -1.65649567E-07
  0.437999994      -2.89120550E-07
  0.439000010      -3.97250432E-07
  0.439999998      -4.87713748E-07
  0.441000015      -5.58973909E-07
  0.442000002      -6.10298059E-07
  0.442999989      -6.41737870E-07
  0.444000006      -6.54078519E-07
  0.444999993      -6.48755361E-07
  0.446000010      -6.27750808E-07
  0.446999997      -5.93464847E-07
  0.448000014      -5.48580260E-07
  0.449000001      -4.95915799E-07
  0.449999988      -4.38284815E-07
  0.451000005      -3.78357612E-07
  0.451999992      -3.18541396E-07
  0.453000009      -2.60877584E-07
  0.453999996      -2.06964742E-07
  0.455000013      -1.57907891E-07
  0.456000000      -1.14297315E-07
  0.456999987      -7.62184555E-08
  0.458000004      -4.32884519E-08
  0.458999991      -1.47196539E-08
  0.460000008       1.05937499E-08
  0.460999995       3.39734996E-08
  0.462000012       5.68403955E-08
  0.463000000       8.05965570E-08
  0.463999987       1.06505055E-07
  0.465000004       1.35581004E-07
  0.465999991       1.68492718E-07
  0.467000008       2.05488192E-07
  0.467999995       2.46341898E-07
  0.469000012       2.90330121E-07
  0.469999999       3.36237520E-07
  0.470999986       3.82393750E-07
  0.472000003       4.26736875E-07
  0.472999990       4.66905277E-07
  0.474000007       5.00353792E-07
  0.474999994       5.24482402E-07
  0.476000011       5.36779794E-07
  0.476999998       5.34969956E-07
  0.477999985       5.17153978E-07
  0.479000002       4.81943573E-07
  0.479999989       4.28572179E-07
  0.481000006       3.56987528E-07
  0.481999993       2.67909826E-07
  0.483000010       1.62857134E-07
  0.483999997       4.41354970E-08
  0.485000014      -8.52112407E-08
  0.486000001      -2.21486260E-07
  0.486999989      -3.60458159E-07
  0.488000005      -4.97511564E-07
  0.488999993      -6.27822772E-07
  0.490000010      -7.46548039E-07
  0.490999997      -8.49024445E-07
  0.492000014      -9.30971225E-07
  0.493000001      -9.88681109E-07
  0.493999988      -1.01919420E-06
  0.495000005      -1.02044510E-06
  0.495999992      -9.91381057E-07
  0.497000009      -9.32035164E-07
  0.497999996      -8.43561622E-07
  0.499000013      -7.28219561E-07
  0.500000000      -5.89314141E-07
  0.500999987      -4.31091792E-07
  0.501999974      -2.58590035E-07
  0.503000021      -7.74596813E-08
  0.504000008       1.06252344E-07
  0.504999995       2.86333318E-07
  0.505999982       4.56648735E-07
  0.507000029       6.11383371E-07
  0.508000016       7.45277930E-07
  0.509000003       8.53840220E-07
  0.509999990       9.33527133E-07
  0.510999978       9.81889684E-07
  0.512000024       9.97676921E-07
  0.513000011       9.80877189E-07
  0.513999999       9.32723253E-07
  0.514999986       8.55633630E-07
  0.515999973       7.53106235E-07
  0.517000020       6.29563942E-07
  0.518000007       4.90163700E-07
  0.518999994       3.40569045E-07
  0.519999981       1.86706032E-07
  0.521000028       3.44978766E-08
  0.522000015      -1.10386438E-07
  0.523000002      -2.42781510E-07
  0.523999989      -3.58248201E-07
  0.524999976      -4.53264505E-07
  0.526000023      -5.25366602E-07
  0.527000010      -5.73252123E-07
  0.527999997      -5.96819802E-07
  0.528999984      -5.97155008E-07
  0.529999971      -5.76459001E-07
  0.531000018      -5.37925303E-07
  0.532000005      -4.85564783E-07
  0.532999992      -4.23993470E-07
  0.533999979      -3.58183911E-07
  0.535000026      -2.93211059E-07
  0.536000013      -2.33966404E-07
  0.537000000      -1.84902277E-07
  0.537999988      -1.49785819E-07
  0.538999975      -1.31477378E-07
  0.540000021      -1.31761155E-07
  0.541000009      -1.51218771E-07
  0.541999996      -1.89174813E-07
  0.542999983      -2.43686287E-07
  0.544000030      -3.11612325E-07
  0.545000017      -3.88740290E-07
  0.546000004      -4.69970814E-07
  0.546999991      -5.49554670E-07
  0.547999978      -6.21373431E-07
  0.549000025      -6.79243442E-07
  0.550000012      -7.17244518E-07
  0.550999999      -7.30037243E-07
  0.551999986      -7.13180498E-07
  0.552999973      -6.63400385E-07
  0.554000020      -5.78836307E-07
  0.555000007      -4.59211634E-07
  0.555999994      -3.05948589E-07
  0.556999981      -1.22206274E-07
  0.558000028       8.71692123E-08
  0.559000015       3.15754789E-07
  0.560000002       5.55757197E-07
  0.560999990       7.98282827E-07
  0.561999977       1.03367427E-06
  0.563000023       1.25188308E-06
  0.564000010       1.44289493E-06
  0.564999998       1.59715853E-06
  0.565999985       1.70601413E-06
  0.566999972       1.76211586E-06
  0.568000019       1.75978698E-06
  0.569000006       1.69535076E-06
  0.569999993       1.56737497E-06
  0.570999980       1.37681741E-06
  0.572000027       1.12710916E-06
  0.573000014       8.24109975E-07
  0.574000001       4.75974900E-07
  0.574999988       9.29251698E-08
  0.575999975      -3.13082950E-07
  0.577000022      -7.28767418E-07
  0.578000009      -1.13998351E-06
  0.578999996      -1.53225972E-06
  0.579999983      -1.89134107E-06
  0.580999970      -2.20374568E-06
  0.582000017      -2.45731076E-06
  0.583000004      -2.64169466E-06
  0.583999991      -2.74881836E-06
  0.584999979      -2.77322761E-06
  0.586000025      -2.71236672E-06
  0.587000012      -2.56673229E-06
  0.588000000      -2.33992273E-06
  0.588999987      -2.03854461E-06
  0.589999974      -1.67203734E-06
  0.591000021      -1.25235056E-06
  0.592000008      -7.93516790E-07
  0.592999995      -3.11168179E-07
  0.593999982       1.78053085E-07
  0.595000029       6.57100713E-07
  0.596000016       1.10917915E-06
  0.597000003       1.51837526E-06
  0.597999990       1.87028184E-06
  0.598999977       2.15254113E-06
  0.600000024       2.35534390E-06
  0.601000011       2.47180469E-06
  0.601999998       2.49824620E-06
  0.602999985       2.43434260E-06
  0.603999972       2.28314298E-06
  0.605000019       2.05094830E-06
  0.606000006       1.74709021E-06
  0.606999993       1.38353437E-06
  0.607999980       9.74449677E-07
  0.609000027       5.35622462E-07
  0.610000014       8.38484908E-08
  0.611000001      -3.63732028E-07
  0.611999989      -7.90309343E-07
  0.612999976      -1.18006710E-06
  0.614000022      -1.51880397E-06
  0.615000010      -1.79447898E-06
  0.615999997      -1.99769215E-06
  0.616999984      -2.12203827E-06
  0.617999971      -2.16433182E-06
  0.619000018      -2.12472810E-06
  0.620000005      -2.00667591E-06
  0.620999992      -1.81676842E-06
  0.621999979      -1.56442491E-06
  0.623000026      -1.26150167E-06
  0.624000013      -9.21776746E-07
  0.625000000      -5.60364924E-07
  0.625999987      -1.93073006E-07
  0.626999974       1.64229050E-07
  0.628000021       4.96307507E-07
  0.629000008       7.89184469E-07
  0.629999995       1.03068317E-06
  0.630999982       1.21096150E-06
  0.632000029       1.32288051E-06
  0.633000016       1.36229755E-06
  0.634000003       1.32820787E-06
  0.634999990       1.22275037E-06
  0.635999978       1.05112213E-06
  0.637000024       8.21305377E-07
  0.638000011       5.43717590E-07
  0.638999999       2.30754793E-07
  0.639999986      -1.03766020E-07
  0.640999973      -4.45197088E-07
  0.642000020      -7.78685660E-07
  0.643000007      -1.08981976E-06
  0.643999994      -1.36523965E-06
  0.644999981      -1.59319495E-06
  0.646000028      -1.76403637E-06
  0.647000015      -1.87061266E-06
  0.648000002      -1.90856986E-06
  0.648999989      -1.87648789E-06
  0.649999976      -1.77595177E-06
  0.651000023      -1.61143385E-06
  0.652000010      -1.39008091E-06
  0.652999997      -1.12140276E-06
  0.653999984      -8.16821000E-07
  0.654999971      -4.89167178E-07
  0.656000018      -1.52130767E-07
  0.657000005       1.80336329E-07
  0.657999992       4.94654898E-07
  0.658999979       7.78163894E-07
  0.660000026       1.01965941E-06
  0.661000013       1.20987772E-06
  0.662000000       1.34186041E-06
  0.662999988       1.41121120E-06
  0.663999975       1.41628345E-06
  0.665000021       1.35819050E-06
  0.666000009       1.24070687E-06
  0.666999996       1.07009362E-06
  0.667999983       8.54757332E-07
  0.669000030       6.04852460E-07
  0.670000017       3.31799811E-07
  0.671000004       4.77562523E-08
  0.671999991      -2.34938582E-07
  0.672999978      -5.04317597E-07
  0.674000025      -7.49336039E-07
  0.675000012      -9.60353191E-07
  0.675999999      -1.12952773E-06
  0.676999986      -1.25118493E-06
  0.677999973      -1.32201706E-06
  0.679000020      -1.34117784E-06
  0.680000007      -1.31032232E-06
  0.680999994      -1.23347547E-06
  0.681999981      -1.11676786E-06
  0.683000028      -9.68158247E-07
  0.684000015      -7.96986058E-07
  0.685000002      -6.13527334E-07
  0.685999990      -4.28446299E-07
  0.686999977      -2.52309178E-07
  0.688000023      -9.50314458E-08
  0.689000010       3.46158195E-08
  0.689999998       1.29405663E-07
  0.690999985       1.84049227E-07
  0.691999972       1.95416604E-07
  0.693000019       1.62728711E-07
  0.694000006       8.75949198E-08
  0.694999993      -2.60947264E-08
  0.695999980      -1.72306258E-07
  0.697000027      -3.43173241E-07
  0.698000014      -5.29376791E-07
  0.699000001      -7.20617606E-07
  0.699999988      -9.06071477E-07
  0.700999975      -1.07496760E-06
  0.702000022      -1.21712458E-06
  0.703000009      -1.32344690E-06
  0.703999996      -1.38639939E-06
  0.704999983      -1.40039731E-06
  0.705999970      -1.36217477E-06
  0.707000017      -1.27090163E-06
  0.708000004      -1.12832095E-06
  0.708999991      -9.38781625E-07
  0.709999979      -7.08974028E-07
  0.711000025      -4.47750210E-07
  0.712000012      -1.65732430E-07
  0.713000000       1.25151558E-07
  0.713999987       4.12151167E-07
  0.714999974       6.82342773E-07
  0.716000021       9.23128937E-07
  0.717000008       1.12283794E-06
  0.717999995       1.27133717E-06
  0.718999982       1.36042365E-06
  0.720000029       1.38432324E-06
  0.721000016       1.33991136E-06
  0.722000003       1.22694439E-06
  0.722999990       1.04812329E-06
  0.723999977       8.09011738E-07
  0.725000024       5.17856449E-07
  0.726000011       1.85228913E-07
  0.726999998      -1.76359379E-07
  0.727999985      -5.52965844E-07
  0.728999972      -9.29851183E-07
  0.730000019      -1.29206501E-06
  0.731000006      -1.62506717E-06
  0.731999993      -1.91542313E-06
  0.732999980      -2.15130149E-06
  0.734000027      -2.32307616E-06
  0.735000014      -2.42367855E-06
  0.736000001      -2.44895750E-06
  0.736999989      -2.39787505E-06
  0.737999976      -2.27251530E-06
  0.739000022      -2.07807307E-06
  0.740000010      -1.82257054E-06
  0.740999997      -1.51655388E-06
  0.741999984      -1.17265472E-06
  0.742999971      -8.04989440E-07
  0.744000018      -4.28613276E-07
  0.745000005      -5.88214846E-08
  0.745999992       2.89417983E-07
  0.746999979       6.02253920E-07
  0.748000026       8.67434778E-07
  0.749000013       1.07486369E-06
  0.750000000       1.21704693E-06
  0.750999987       1.28932106E-06
  0.751999974       1.29012585E-06
  0.753000021       1.22103052E-06
  0.754000008       1.08655934E-06
  0.754999995       8.94066432E-07
  0.755999982       6.53271911E-07
  0.757000029       3.75893762E-07
  0.758000016       7.50171907E-08
  0.759000003      -2.35474616E-07
  0.759999990      -5.41596080E-07
  0.760999978      -8.29817225E-07
  0.762000024      -1.08780512E-06
  0.763000011      -1.30486137E-06
  0.763999999      -1.47254650E-06
  0.764999986      -1.58494652E-06
  0.765999973      -1.63895788E-06
  0.767000020      -1.63444224E-06
  0.768000007      -1.57420004E-06
  0.768999994      -1.46379261E-06
  0.769999981      -1.31120748E-06
  0.771000028      -1.12652151E-06
  0.772000015      -9.21391802E-07
  0.773000002      -7.08375808E-07
  0.773999989      -5.00337535E-07
  0.774999976      -3.09876555E-07
  0.776000023      -1.48508590E-07
  0.777000010      -2.62457043E-08
  0.777999997       4.91492180E-08
  0.778999984       7.23214839E-08
  0.779999971       4.08441423E-08
  0.781000018      -4.46355486E-08
  0.782000005      -1.80441802E-07
  0.782999992      -3.59991020E-07
  0.783999979      -5.73999216E-07
  0.785000026      -8.10930487E-07
  0.786000013      -1.05758124E-06
  0.787000000      -1.29956334E-06
  0.787999988      -1.52218990E-06
  0.788999975      -1.71100544E-06
  0.790000021      -1.85264219E-06
  0.791000009      -1.93547612E-06
  0.791999996      -1.95025473E-06
  0.792999983      -1.89072193E-06
  0.794000030      -1.75391529E-06
  0.795000017      -1.54051759E-06
  0.796000004      -1.25488361E-06
  0.796999991      -9.05082061E-07
  0.797999978      -5.02514865E-07
  0.799000025      -6.18164080E-08
  0.800000012       4.00032036E-07
  0.800999999       8.64207834E-07
  0.801999986       1.31076911E-06
  0.802999973       1.71965905E-06
  0.804000020       2.07147195E-06
  0.805000007       2.34832464E-06
  0.805999994       2.53480039E-06
  0.806999981       2.61847981E-06
  0.808000028       2.59073136E-06
  0.809000015       2.44728085E-06
  0.810000002       2.18814307E-06
  0.810999990       1.81827818E-06
  0.811999977       1.34714924E-06
  0.813000023       7.88610180E-07
  0.814000010       1.60256249E-07
  0.814999998      -5.16868738E-07
  0.815999985      -1.21934920E-06
  0.816999972      -1.92210859E-06
  0.818000019      -2.59946250E-06
  0.819000006      -3.22616484E-06
  0.819999993      -3.77834454E-06
  0.820999980      -4.23451547E-06
  0.822000027      -4.57650458E-06
  0.823000014      -4.79023674E-06
  0.824000001      -4.86616409E-06
  0.824999988      -4.79994833E-06
  0.825999975      -4.59251987E-06
  0.827000022      -4.25007966E-06
  0.828000009      -3.78397976E-06
  0.828999996      -3.21029779E-06
  0.829999983      -2.54922338E-06
  0.830999970      -1.82413908E-06
  0.832000017      -1.06093046E-06
  0.833000004      -2.86785166E-07
  0.833999991       4.70728907E-07
  0.834999979       1.18488128E-06
  0.836000025       1.83075781E-06
  0.837000012       2.38626330E-06
  0.838000000       2.83289455E-06
  0.838999987       3.15667580E-06
  0.839999974       3.34848050E-06
  0.841000021       3.40434531E-06
  0.842000008       3.32569857E-06
  0.842999995       3.11916574E-06
  0.843999982       2.79617961E-06
  0.845000029       2.37267977E-06
  0.846000016       1.86811326E-06
  0.847000003       1.30466719E-06
  0.847999990       7.06512537E-07
  0.848999977       9.84218786E-08
  0.850000024      -4.94966400E-07
  0.851000011      -1.05033052E-06
  0.851999998      -1.54677502E-06
  0.852999985      -1.96630936E-06
  0.853999972      -2.29486727E-06
  0.855000019      -2.52268592E-06
  0.856000006      -2.64482583E-06