   0.00000000       0.00000000    
   1.00000005E-03   0.00000000    
   2.00000009E-03   0.00000000    
   3.00000003E-03   0.00000000    
   4.00000019E-03   0.00000000    
   4.99999989E-03   0.00000000    
   6.00000005E-03   0.00000000    
   7.00000022E-03   0.00000000    
   8.00000038E-03   0.00000000    
   8.99999961E-03   0.00000000    
   9.99999978E-03   0.00000000    
   1.09999999E-02   0.00000000    
   1.20000001E-02   0.00000000    
   1.30000003E-02   0.00000000    
   1.40000004E-02   0.00000000    
   1.49999997E-02  -5.98076090E-38
   1.60000008E-02  -3.06111161E-37
   1.70000009E-02  -1.18715486E-36
   1.79999992E-02  -4.02498693E-36
   1.89999994E-02  -1.24572626E-35
   1.99999996E-02  -3.57851073E-35
   2.09999997E-02  -9.63454800E-35
   2.19999999E-02  -2.44860386E-34
   2.30000000E-02  -5.90867562E-34
   2.40000002E-02  -1.36038437E-33
   2.50000004E-02  -3.00072465E-33
   2.60000005E-02  -6.36377818E-33
   2.70000007E-02  -1.30149970E-32
   2.80000009E-02  -2.57365114E-32
   2.89999992E-02  -4.93193584E-32
   2.99999993E-02  -9.17708557E-32
   3.09999995E-02  -1.66095824E-31
   3.20000015E-02  -2.92839858E-31
   3.29999998E-02  -5.03599271E-31
   3.40000018E-02  -8.45693612E-31
   3.50000001E-02  -1.38814166E-30
   3.59999985E-02  -2.22895640E-30
   3.70000005E-02  -3.50354756E-30
   3.79999988E-02  -5.39364844E-30
   3.90000008E-02  -8.13563816E-30
   3.99999991E-02  -1.20263469E-29
   4.10000011E-02  -1.74234037E-29
   4.19999994E-02  -2.47358708E-29
   4.30000015E-02  -3.43992935E-29
   4.39999998E-02  -4.68274910E-29
   4.50000018E-02  -6.23313625E-29
   4.60000001E-02  -8.09931000E-29
   4.69999984E-02  -1.02482307E-28
   4.80000004E-02  -1.25799577E-28
   4.89999987E-02  -1.48932825E-28
   5.00000007E-02  -1.68413076E-28
   5.09999990E-02  -1.78760424E-28
   5.20000011E-02  -1.71817061E-28
   5.29999994E-02  -1.35974891E-28
   5.40000014E-02  -5.53198400E-29
   5.49999997E-02   9.12651798E-29
   5.60000017E-02   3.30972072E-28
   5.70000000E-02   6.97816612E-28
   5.79999983E-02   1.23313279E-27
   5.90000004E-02   1.98564071E-27
   5.99999987E-02   3.01087639E-27
   6.10000007E-02   4.36973167E-27
   6.19999990E-02   6.12582001E-27
   6.30000010E-02   8.34135589E-27
   6.40000030E-02   1.10712306E-26
   6.49999976E-02   1.43549820E-26
   6.59999996E-02   1.82063966E-26
   6.70000017E-02   2.26005753E-26
   6.80000037E-02   2.74584023E-26
   6.89999983E-02   3.26285782E-26
   7.00000003E-02   3.78675544E-26
   7.10000023E-02   4.28180726E-26
   7.19999969E-02   4.69873073E-26
   7.29999989E-02   4.97260228E-26
   7.40000010E-02   5.02106453E-26
   7.50000030E-02   4.74304900E-26
   7.59999976E-02   4.01829691E-26
   7.69999996E-02   2.70798970E-26
   7.80000016E-02   6.56833939E-27
   7.90000036E-02  -2.30303103E-26
   7.99999982E-02  -6.34594040E-26
   8.10000002E-02  -1.16440849E-25
   8.20000023E-02  -1.83560895E-25
   8.29999968E-02  -2.66125702E-25
   8.39999989E-02  -3.64986318E-25
   8.50000009E-02  -4.80333658E-25
   8.60000029E-02  -6.11466894E-25
   8.69999975E-02  -7.56540436E-25
   8.79999995E-02  -9.12298704E-25
   8.90000015E-02  -1.07380900E-24
   9.00000036E-02  -1.23420888E-24
   9.09999982E-02  -1.38448471E-24
   9.20000002E-02  -1.51330422E-24
   9.30000022E-02  -1.60692613E-24
   9.39999968E-02  -1.64921391E-24
   9.49999988E-02  -1.62177999E-24
   9.60000008E-02  -1.50428981E-24
   9.70000029E-02  -1.27495019E-24
   9.79999974E-02  -9.11205540E-25
   9.89999995E-02  -3.90660363E-25
  0.100000001       3.07762249E-25
  0.101000004       1.20242340E-24
  0.101999998       2.30734360E-24
  0.103000000       3.63037260E-24
  0.104000002       5.17119347E-24
  0.104999997       6.91921654E-24
  0.105999999       8.85143430E-24
  0.107000001       1.09303313E-23
  0.108000003       1.31019541E-23
  0.108999997       1.52942664E-23
  0.109999999       1.74159283E-23
  0.111000001       1.93556489E-23
  0.112000003       2.09822707E-23
  0.112999998       2.21457301E-23
  0.114000000       2.26790584E-23
  0.115000002       2.24015671E-23
  0.115999997       2.11233158E-23
  0.116999999       1.86509847E-23
  0.118000001       1.47951825E-23
  0.119000003       9.37922800E-24
  0.119999997       2.24933925E-24
  0.120999999      -6.71385632E-24
  0.122000001      -1.75826667E-23
  0.123000003      -3.03687846E-23
  0.123999998      -4.50091752E-23
  0.125000000      -6.13518267E-23
  0.126000002      -7.91418392E-23
  0.127000004      -9.80085206E-23
  0.128000006      -1.17454144E-22
  0.128999993      -1.36845090E-22
  0.129999995      -1.55406406E-22
  0.130999997      -1.72220465E-22
  0.131999999      -1.86230976E-22
  0.133000001      -1.96253157E-22
  0.134000003      -2.00991118E-22
  0.135000005      -1.99063572E-22
  0.136000007      -1.89038576E-22
  0.136999995      -1.69478183E-22
  0.137999997      -1.38993543E-22
  0.138999999      -9.63106774E-23
  0.140000001      -4.03470231E-23
  0.141000003       2.97020993E-23
  0.142000005       1.14267802E-22
  0.143000007       2.13304783E-22
  0.143999994       3.26183533E-22
  0.144999996       4.51581191E-22
  0.145999998       5.87375026E-22
  0.147000000       7.30543814E-22
  0.148000002       8.77083575E-22
  0.149000004       1.02194408E-21
  0.150000006       1.15899485E-21
  0.150999993       1.28102893E-21
  0.151999995       1.37981380E-21
  0.152999997       1.44619747E-21
  0.153999999       1.47028103E-21
  0.155000001       1.44166312E-21
  0.156000003       1.34976489E-21
  0.157000005       1.18423940E-21
  0.158000007       9.35466350E-22
  0.158999994       5.95131359E-22
  0.159999996       1.56882813E-22
  0.160999998      -3.82946506E-22
  0.162000000      -1.02456931E-21
  0.163000003      -1.76395074E-21
  0.164000005      -2.59202356E-21
  0.165000007      -3.49394911E-21
  0.165999994      -4.44847111E-21
  0.166999996      -5.42740907E-21
  0.167999998      -6.39535498E-21
  0.169000000      -7.30962301E-21
  0.170000002      -8.12052335E-21
  0.171000004      -8.77200806E-21
  0.172000006      -9.20274944E-21
  0.172999993      -9.34769830E-21
  0.173999995      -9.14014544E-21
  0.174999997      -8.51431222E-21
  0.175999999      -7.40845009E-21
  0.177000001      -5.76843165E-21
  0.178000003      -3.55175522E-21
  0.179000005      -7.31876522E-22
  0.180000007       2.69727119E-21
  0.180999994       6.71673485E-21
  0.181999996       1.12781860E-20
  0.182999998       1.62999898E-20
  0.184000000       2.16639717E-20
  0.185000002       2.72131629E-20
  0.186000004       3.27508431E-20
  0.187000006       3.80411866E-20
  0.187999994       4.28117795E-20
  0.188999996       4.67582937E-20
  0.189999998       4.95515276E-20
  0.191000000       5.08469409E-20
  0.192000002       5.02967527E-20
  0.193000004       4.75645493E-20
  0.194000006       4.23422091E-20
  0.194999993       3.43688342E-20
  0.195999995       2.34512231E-20
  0.196999997       9.48520900E-21
  0.197999999      -7.52288213E-21
  0.199000001      -2.74356454E-20
  0.200000003      -4.99659418E-20
  0.201000005      -7.46613867E-20
  0.202000007      -1.00893261E-19
  0.202999994      -1.27851116E-19
  0.203999996      -1.54544442E-19
  0.204999998      -1.79812405E-19
  0.206000000      -2.02342996E-19
  0.207000002      -2.20702050E-19
  0.208000004      -2.33372906E-19
  0.209000006      -2.38806707E-19
  0.209999993      -2.35482837E-19
  0.210999995      -2.21979061E-19
  0.211999997      -1.97049376E-19
  0.213000000      -1.59707923E-19
  0.214000002      -1.09316131E-19
  0.215000004      -4.56699276E-20
  0.216000006       3.09168706E-20
  0.216999993       1.19537240E-19
  0.217999995       2.18628256E-19
  0.218999997       3.25925938E-19
  0.219999999       4.38442586E-19
  0.221000001       5.52471036E-19
  0.222000003       6.63620277E-19
  0.223000005       7.66885970E-19
  0.224000007       8.56758472E-19
  0.224999994       9.27370073E-19
  0.225999996       9.72680442E-19
  0.226999998       9.86700429E-19
  0.228000000       9.63748132E-19
  0.229000002       8.98733907E-19
  0.230000004       7.87465190E-19
  0.231000006       6.26961855E-19
  0.231999993       4.15770522E-19
  0.232999995       1.54263963E-19
  0.233999997      -1.55088830E-19
  0.234999999      -5.07498053E-19
  0.236000001      -8.95690296E-19
  0.237000003      -1.30982375E-18
  0.238000005      -1.73749598E-18
  0.238999993      -2.16385919E-18
  0.239999995      -2.57185321E-18
  0.240999997      -2.94256289E-18
  0.241999999      -3.25570658E-18
  0.243000001      -3.49025096E-18
  0.244000003      -3.62514633E-18
  0.245000005      -3.64017372E-18
  0.246000007      -3.51687501E-18
  0.246999994      -3.23955175E-18
  0.247999996      -2.79629151E-18
  0.248999998      -2.17999046E-18
  0.250000000      -1.38932594E-18
  0.250999987      -4.29633009E-19
  0.252000004       6.86362833E-19
  0.252999991       1.93800745E-18
  0.254000008       3.29642331E-18
  0.254999995       4.72450204E-18
  0.256000012       6.17722600E-18
  0.256999999       7.60234900E-18
  0.257999986       8.94145598E-18
  0.259000003       1.01314132E-17
  0.259999990       1.11062009E-17
  0.261000007       1.17991011E-17
  0.261999995       1.21452117E-17
  0.263000011       1.20842154E-17
  0.263999999       1.15633373E-17
  0.264999986       1.05403870E-17
  0.266000003       8.98678879E-18
  0.266999990       6.89046165E-18
  0.268000007       4.25843705E-18
  0.268999994       1.11905067E-18
  0.270000011      -2.47640815E-18
  0.270999998      -6.45273463E-18
  0.272000015      -1.07106563E-17
  0.273000002      -1.51275965E-17
  0.273999989      -1.95594367E-17
  0.275000006      -2.38433290E-17
  0.275999993      -2.78015834E-17
  0.277000010      -3.12465954E-17
  0.277999997      -3.39867768E-17
  0.279000014      -3.58333252E-17
  0.280000001      -3.66077416E-17
  0.280999988      -3.61498177E-17
  0.282000005      -3.43258944E-17
  0.282999992      -3.10370904E-17
  0.284000009      -2.62271477E-17
  0.284999996      -1.98895876E-17
  0.286000013      -1.20738062E-17
  0.287000000      -2.88973934E-18
  0.287999988       7.48922544E-18
  0.289000005       1.88254164E-17
  0.289999992       3.08183839E-17
  0.291000009       4.31089544E-17
  0.291999996       5.52859596E-17
  0.293000013       6.68956777E-17
  0.294000000       7.74539302E-17
  0.294999987       8.64606962E-17
  0.296000004       9.34168881E-17
  0.296999991       9.78429330E-17
  0.298000008       9.92986981E-17
  0.298999995       9.74040442E-17
  0.300000012       9.18593533E-17
  0.300999999       8.24652815E-17
  0.301999986       6.91408179E-17
  0.303000003       5.19389023E-17
  0.303999990       3.10586501E-17
  0.305000007       6.85343126E-18
  0.305999994      -2.01659255E-17
  0.307000011      -4.93334620E-17
  0.307999998      -7.98364088E-17
  0.308999985      -1.10729792E-16
  0.310000002      -1.40957413E-16
  0.310999990      -1.69379087E-16
  0.312000006      -1.94803668E-16
  0.312999994      -2.16027336E-16
  0.314000010      -2.31876116E-16
  0.314999998      -2.41251448E-16
  0.316000015      -2.43177601E-16
  0.317000002      -2.36849100E-16
  0.317999989      -2.21676476E-16
  0.319000006      -1.97328713E-16
  0.319999993      -1.63770062E-16
  0.321000010      -1.21289705E-16
  0.321999997      -7.05223485E-17
  0.323000014      -1.24580770E-17
  0.324000001       5.15598186E-17
  0.324999988       1.19850080E-16
  0.326000005       1.90422469E-16
  0.326999992       2.61020641E-16
  0.328000009       3.29178788E-16
  0.328999996       3.92290789E-16
  0.330000013       4.47691006E-16
  0.331000000       4.92744371E-16
  0.331999987       5.24943481E-16
  0.333000004       5.42009660E-16
  0.333999991       5.41994837E-16
  0.335000008       5.23380335E-16
  0.335999995       4.85168931E-16
  0.337000012       4.26965671E-16
  0.338000000       3.49044596E-16
  0.338999987       2.52396654E-16
  0.340000004       1.38755974E-16
  0.340999991       1.06016695E-17
  0.342000008      -1.28867037E-16
  0.342999995      -2.75783604E-16
  0.344000012      -4.25695413E-16
  0.344999999      -5.73672704E-16
  0.345999986      -7.14443545E-16
  0.347000003      -8.42552461E-16
  0.347999990      -9.52538101E-16
  0.349000007      -1.03912573E-15
  0.349999994      -1.09742859E-15
  0.351000011      -1.12315171E-15
  0.351999998      -1.11278985E-15
  0.352999985      -1.06381420E-15
  0.354000002      -9.74838255E-16
  0.354999989      -8.45755939E-16
  0.356000006      -6.77844998E-16
  0.356999993      -4.73829172E-16
  0.358000010      -2.37893650E-16
  0.358999997       2.43499969E-17
  0.360000014       3.05952403E-16
  0.361000001       5.98768808E-16
  0.361999989       8.93654488E-16
  0.363000005       1.18071014E-15
  0.363999993       1.44957174E-15
  0.365000010       1.68973861E-15
  0.365999997       1.89092906E-15
  0.367000014       2.04345470E-15
  0.368000001       2.13860064E-15
  0.368999988       2.16899790E-15
  0.370000005       2.12897475E-15
  0.370999992       2.01487264E-15
  0.372000009       1.82531471E-15
  0.372999996       1.56141016E-15
  0.374000013       1.22688763E-15
  0.375000000       8.28144060E-16
  0.375999987       3.74204359E-16
  0.377000004      -1.23414487E-16
  0.377999991      -6.50935397E-16
  0.379000008      -1.19264738E-15
  0.379999995      -1.73132094E-15
  0.381000012      -2.24870307E-15
  0.381999999      -2.72608046E-15
  0.382999986      -3.14489400E-15
  0.384000003      -3.48738690E-15
  0.384999990      -3.73726606E-15
  0.386000007      -3.88035110E-15
  0.386999995      -3.90519416E-15
  0.388000011      -3.80363787E-15
  0.388999999      -3.57129377E-15
  0.389999986      -3.20791981E-15
  0.391000003      -2.71767472E-15
  0.391999990      -2.10923465E-15
  0.393000007      -1.39575900E-15
  0.393999994      -5.94699926E-16
  0.395000011       2.72549341E-16
  0.395999998       1.18116193E-15
  0.397000015       2.10353306E-15
  0.398000002       3.01006753E-15
  0.398999989       3.87007956E-15
  0.400000006       4.65278035E-15
  0.400999993       5.32832047E-15
  0.402000010       5.86885539E-15
  0.402999997       6.24959840E-15
  0.404000014       6.44982216E-15
  0.405000001       6.45376849E-15
  0.405999988       6.25143519E-15
  0.407000005       5.83920331E-15
  0.407999992       5.22026914E-15
  0.409000009       4.40486906E-15
  0.409999996       3.41026540E-15
  0.411000013       2.26049038E-15
  0.412000000       9.85844707E-16
  0.412999988      -3.77846231E-16
  0.414000005      -1.79020075E-15
  0.414999992      -3.20745034E-15
  0.416000009      -4.58377978E-15
  0.416999996      -5.87279537E-15
  0.418000013      -7.02907962E-15
  0.419000000      -8.00977394E-15
  0.419999987      -8.77614564E-15
  0.421000004      -9.29506682E-15
  0.421999991      -9.54036671E-15
  0.423000008      -9.49399420E-15
  0.423999995      -9.14694024E-15
  0.425000012      -8.49988584E-15
  0.425999999      -7.56352988E-15
  0.426999986      -6.35858824E-15
  0.428000003      -4.91543553E-15
  0.428999990      -3.27339864E-15
  0.430000007      -1.47971193E-15
  0.430999994       4.11841951E-16
  0.432000011       2.34256829E-15
  0.432999998       4.25072219E-15
  0.433999985       6.07354175E-15
  0.435000002       7.74938161E-15
  0.435999990       9.21987401E-15
  0.437000006       1.04320400E-14
  0.437999994       1.13402770E-14
  0.439000010       1.19081372E-14
  0.439999998       1.21098403E-14
  0.441000015       1.19314391E-14
  0.442000002       1.13716003E-14
  0.442999989       1.04419537E-14
  0.444000006       9.16698358E-15
  0.444999993       7.58345379E-15
  0.446000010       5.73937667E-15
  0.446999997       3.69254992E-15
  0.448000014       1.50870120E-15
  0.449000001      -7.40699237E-16
  0.449999988      -2.98088216E-15
  0.451000005      -5.13640102E-15
  0.451999992      -7.13383345E-15
  0.453000009      -8.90446096E-15
  0.453999996      -1.03868347E-14
  0.455000013      -1.15291171E-14
  0.456000000      -1.22911054E-14
  0.456999987      -1.26458639E-14
  0.458000004      -1.25808787E-14
  0.458999991      -1.20986917E-14
  0.460000008      -1.12169642E-14
  0.460999995      -9.96797351E-15
  0.462000012      -8.39753207E-15
  0.463000000      -6.56336820E-15
  0.463999987      -4.53302006E-15
  0.465000004      -2.38131349E-15
  0.465999991      -1.87516736E-16
  0.467000008       1.96772043E-15
  0.467999995       4.00552775E-15
  0.469000012       5.85194396E-15
  0.469999999       7.44089645E-15
  0.470999986       8.71689145E-15
  0.472000003       9.63731810E-15
  0.472999990       1.01742421E-14
  0.474000007       1.03156153E-14
  0.474999994       1.00658372E-14
  0.476000011       9.44562608E-15
  0.476999998       8.49119359E-15
  0.477999985       7.25273232E-15
  0.479000002       5.79228234E-15
  0.479999989       4.18103594E-15
  0.481000006       2.49619043E-15
  0.481999993       8.17478697E-16
  0.483000010      -7.76486167E-16
  0.483999997      -2.21189080E-15
  0.485000014      -3.42326439E-15
  0.486000001      -4.35672201E-15
  0.486999989      -4.97275171E-15
  0.488000005      -5.24840630E-15
  0.488999993      -5.17877723E-15
  0.490000010      -4.77765715E-15
  0.490999997      -4.07733455E-15
  0.492000014      -3.12749043E-15
  0.493000001      -1.99321252E-15
  0.493999988      -7.52183098E-16
  0.495000005       5.08867537E-16
  0.495999992       1.69831144E-15
  0.497000009       2.72421169E-15
  0.497999996       3.49916023E-15
  0.499000013       3.94514997E-15
  0.500000000       3.99825894E-15
  0.500999987       3.61291655E-15
  0.501999974       2.76553314E-15
  0.503000021       1.45728800E-15
  0.504000008      -2.84104380E-16
  0.504999995      -2.40378887E-15
  0.505999982      -4.82042554E-15
  0.507000029      -7.42815453E-15
  0.508000016      -1.00998667E-14
  0.509000003      -1.26917071E-14
  0.509999990      -1.50486940E-14
  0.510999978      -1.70112778E-14
  0.512000024      -1.84225990E-14
  0.513000011      -1.91361717E-14
  0.513999999      -1.90236824E-14
  0.514999986      -1.79825755E-14
  0.515999973      -1.59430540E-14
  0.517000020      -1.28741757E-14
  0.518000007      -8.78869697E-15
  0.518999994      -3.74637844E-15
  0.519999981       2.14449536E-15
  0.521000028       8.72758693E-15
  0.522000015       1.58010659E-14
  0.523000002       2.31223139E-14
  0.523999989       3.04147170E-14
  0.524999976       3.73764028E-14
  0.526000023       4.36907082E-14
  0.527000010       4.90380441E-14
  0.527999997       5.31087693E-14
  0.528999984       5.56166407E-14
  0.529999971       5.63122818E-14
  0.531000018       5.49961688E-14
  0.532000005       5.15305436E-14
  0.532999992       4.58497071E-14
  0.533999979       3.79682112E-14
  0.535000026       2.79864056E-14
  0.536000013       1.60930229E-14
  0.537000000       2.56444858E-15
  0.537999988      -1.22394762E-14
  0.538999975      -2.78831896E-14
  0.540000021      -4.38666234E-14
  0.541000009      -5.96396373E-14
  0.541999996      -7.46193539E-14
  0.542999983      -8.82098892E-14
  0.544000030      -9.98238696E-14
  0.545000017      -1.08904984E-13
  0.546000004      -1.14950814E-13
  0.546999991      -1.17535091E-13
  0.547999978      -1.16328415E-13
  0.549000025      -1.11116594E-13
  0.550000012      -1.01815888E-13
  0.550999999      -8.84841584E-14
  0.551999986      -7.13275061E-14
  0.552999973      -5.07016846E-14
  0.554000020      -2.71081223E-14
  0.555000007      -1.18424883E-15
  0.555999994       2.63117216E-14
  0.556999981       5.45213560E-14
  0.558000028       8.25114039E-14
  0.559000015       1.09303354E-13
  0.560000002       1.33906273E-13
  0.560999990       1.55351928E-13
  0.561999977       1.72730808E-13
  0.563000023       1.85228162E-13
  0.564000010       1.92158247E-13
  0.564999998       1.92995712E-13
  0.565999985       1.87402841E-13
  0.566999972       1.75251225E-13
  0.568000019       1.56637032E-13
  0.569000006       1.31888763E-13
  0.569999993       1.01567084E-13
  0.570999980       6.64561654E-14
  0.572000027       2.75464974E-14
  0.573000014      -1.39905702E-14
  0.574000001      -5.68360293E-14
  0.574999988      -9.95633494E-14
  0.575999975      -1.40684339E-13
  0.577000022      -1.78699381E-13
  0.578000009      -2.12150406E-13
  0.578999996      -2.39674708E-13
  0.579999983      -2.60057872E-13
  0.580999970      -2.72283552E-13
  0.582000017      -2.75578551E-13
  0.583000004      -2.69450884E-13
  0.583999991      -2.53719680E-13
  0.584999979      -2.28534937E-13
  0.586000025      -1.94386391E-13
  0.587000012      -1.52100514E-13
  0.588000000      -1.02825300E-13
  0.588999987      -4.80028919E-14
  0.589999974       1.06694549E-14
  0.591000021       7.12892134E-14
  0.592000008       1.31807759E-13
  0.592999995       1.90097219E-13
  0.593999982       2.44022847E-13
  0.595000029       2.91518491E-13
  0.596000016       3.30662635E-13
  0.597000003       3.59752321E-13
  0.597999990       3.77372016E-13
  0.598999977       3.82454946E-13
  0.600000024       3.74334380E-13
  0.601000011       3.52782555E-13
  0.601999998       3.18035420E-13
  0.602999985       2.70801692E-13
  0.603999972       2.12255506E-13
  0.605000019       1.44012216E-13
  0.606000006       6.80875305E-14
  0.606999993      -1.31591515E-14
  0.607999980      -9.70955426E-14
  0.609000027      -1.80899620E-13
  0.610000014      -2.61652435E-13
  0.611000001      -3.36437746E-13
  0.611999989      -4.02444842E-13
  0.612999976      -4.57071392E-13
  0.614000022      -4.98022522E-13
  0.615000010      -5.23401851E-13
  0.615999997      -5.31792221E-13
  0.616999984      -5.22321552E-13
  0.617999971      -4.94711856E-13
  0.619000018      -4.49308749E-13
  0.620000005      -3.87089720E-13
  0.620999992      -3.09650444E-13
  0.621999979      -2.19168691E-13
  0.623000026      -1.18346413E-13
  0.624000013      -1.03314438E-14
  0.625000000       1.01378988E-13
  0.625999987       2.13050253E-13
  0.626999974       3.20834152E-13
  0.628000021       4.20900592E-13
  0.629000008       5.09572636E-13
  0.629999995       5.83460255E-13
  0.630999982       6.39588100E-13
  0.632000029       6.75512272E-13
  0.633000016       6.89421773E-13
  0.634000003       6.80220908E-13
  0.634999990       6.47588482E-13
  0.635999978       5.92011412E-13
  0.637000024       5.14791118E-13
  0.638000011       4.18020951E-13
  0.638999999       3.04535206E-13
  0.639999986       1.77830569E-13
  0.640999973       4.19619783E-14
  0.642000020      -9.85841454E-14
  0.643000007      -2.39035327E-13
  0.643999994      -3.74492700E-13
  0.644999981      -5.00099203E-13
  0.646000028      -6.11211168E-13
  0.647000015      -7.03566979E-13
  0.648000002      -7.73446574E-13
  0.648999989      -8.17816463E-13
  0.649999976      -8.34454359E-13
  0.651000023      -8.22048484E-13
  0.652000010      -7.80267561E-13
  0.652999997      -7.09798323E-13
  0.653999984      -6.12347954E-13
  0.654999971      -4.90611403E-13
  0.656000018      -3.48202424E-13
  0.657000005      -1.89551649E-13
  0.657999992      -1.97727712E-14
  0.658999979       1.55498024E-13
  0.660000026       3.30285061E-13
  0.661000013       4.98472411E-13
  0.662000000       6.54012868E-13
  0.662999988       7.91139561E-13
  0.663999975       9.04572803E-13
  0.665000021       9.89715146E-13
  0.666000009       1.04282663E-12
  0.666999996       1.06117502E-12
  0.667999983       1.04315428E-12
  0.669000030       9.88366724E-13
  0.670000017       8.97664809E-13
  0.671000004       7.73151454E-13
  0.671999991       6.18136293E-13
  0.672999978       4.37049810E-13
  0.674000025       2.35316974E-13
  0.675000012       1.91938022E-14
  0.675999999      -2.04427824E-13
  0.676999986      -4.28241372E-13
  0.677999973      -6.44765383E-13
  0.679000020      -8.46594116E-13
  0.680000007      -1.02665012E-12
  0.680999994      -1.17843105E-12
  0.681999981      -1.29624024E-12
  0.683000028      -1.37539557E-12
  0.684000015      -1.41240589E-12
  0.685000002      -1.40511116E-12
  0.685999990      -1.35277878E-12
  0.686999977      -1.25615349E-12
  0.688000023      -1.11745791E-12
  0.689000010      -9.40342097E-13
  0.689999998      -7.29784614E-13
  0.690999985      -4.91946978E-13
  0.691999972      -2.33985466E-13
  0.693000019       3.61733586E-14
  0.694000006       3.10086104E-13
  0.694999993       5.79067176E-13
  0.695999980       8.34475067E-13
  0.697000027       1.06800061E-12
  0.698000014       1.27194761E-12
  0.699000001       1.43949620E-12
  0.699999988       1.56493915E-12
  0.700999975       1.64388316E-12
  0.702000022       1.67340816E-12
  0.703000009       1.65217796E-12
  0.703999996       1.58049897E-12
  0.704999983       1.46032307E-12
  0.705999970       1.29519561E-12
  0.707000017       1.09014880E-12
  0.708000004       8.51543987E-13
  0.708999991       5.86867957E-13
  0.709999979       3.04489615E-13
  0.711000025       1.33852974E-14
  0.712000012      -2.77158044E-13
  0.713000000      -5.57851888E-13
  0.713999987      -8.19716799E-13
  0.714999974      -1.05438390E-12
  0.716000021      -1.25437692E-12
  0.717000008      -1.41336498E-12
  0.717999995      -1.52637722E-12
  0.718999982      -1.58997132E-12
  0.720000029      -1.60235106E-12
  0.721000016      -1.56342701E-12
  0.722000003      -1.47481940E-12
  0.722999990      -1.33980229E-12
  0.723999977      -1.16319118E-12
  0.725000024      -9.51176854E-13
  0.726000011      -7.11112267E-13
  0.726999998      -4.51259445E-13
  0.727999985      -1.80504469E-13
  0.728999972       9.19486587E-14
  0.730000019       3.56895150E-13
  0.731000006       6.05446303E-13
  0.731999993       8.29335298E-13
  0.732999980       1.02120059E-12
  0.734000027       1.17483757E-12
  0.735000014       1.28540971E-12
  0.736000001       1.34961020E-12
  0.736999989       1.36577143E-12
  0.737999976       1.33391486E-12
  0.739000022       1.25574215E-12
  0.740000010       1.13456694E-12
  0.740999997       9.75189764E-13
  0.741999984       7.83720202E-13
  0.742999971       5.67353022E-13
  0.744000018       3.34106874E-13
  0.745000005       9.25334706E-14
  0.745999992      -1.48590951E-13
  0.746999979      -3.80581742E-13
  0.748000026      -5.95157550E-13
  0.749000013      -7.84736967E-13
  0.750000000      -9.42709127E-13
  0.750999987      -1.06366814E-12
  0.751999974      -1.14360377E-12
  0.753000021      -1.18004087E-12
  0.754000008      -1.17212240E-12
  0.754999995      -1.12063299E-12
  0.755999982      -1.02796352E-12
  0.757000029      -8.98015278E-13
  0.758000016      -7.36049676E-13
  0.759000003      -5.48487796E-13
  0.759999990      -3.42666976E-13
  0.760999978      -1.26563934E-13
  0.762000024       9.15061890E-14
  0.763000011       3.03203372E-13
  0.763999999       5.00477535E-13
  0.764999986       6.75872661E-13
  0.765999973       8.22809865E-13
  0.767000020       9.35837562E-13
  0.768000007       1.01084061E-12
  0.768999994       1.04519941E-12
  0.769999981       1.03789362E-12
  0.771000028       9.89545793E-13
  0.772000015       9.02403694E-13
  0.773000002       7.80260134E-13
  0.773999989       6.28314891E-13
  0.774999976       4.52981186E-13
  0.776000023       2.61645469E-13
  0.777000010       6.23875544E-14
  0.777999997      -1.36327825E-13
  0.778999984      -3.25977499E-13
  0.779999971      -4.98312112E-13
  0.781000018      -6.45681967E-13
  0.782000005      -7.61344113E-13
  0.782999992      -8.39739411E-13
  0.783999979      -8.76728594E-13
  0.785000026      -8.69777883E-13
  0.786000013      -8.18087460E-13
  0.787000000      -7.22655985E-13
  0.787999988      -5.86279018E-13
  0.788999975      -4.13479472E-13
  0.790000021      -2.10372233E-13
  0.791000009       1.55334340E-14
  0.791999996       2.55587625E-13
  0.792999983       5.00300918E-13
  0.794000030       7.39683163E-13
  0.795000017       9.63608100E-13
  0.796000004       1.16219089E-12
  0.796999991       1.32616498E-12
  0.797999978       1.44724564E-12
  0.799000025       1.51846526E-12
  0.800000012       1.53446841E-12
  0.800999999       1.49175626E-12
  0.801999986       1.38886830E-12
  0.802999973       1.22649601E-12
  0.804000020       1.00752111E-12
  0.805000007       7.36976235E-13
  0.805999994       4.21927684E-13
  0.806999981       7.12826066E-14
  0.808000028      -3.04474328E-13
  0.809000015      -6.93607064E-13
  0.810000002      -1.08350677E-12
  0.810999990      -1.46111140E-12
  0.811999977      -1.81335220E-12
  0.813000023      -2.12761167E-12
  0.814000010      -2.39217804E-12
  0.814999998      -2.59668090E-12
  0.815999985      -2.73249110E-12
  0.816999972      -2.79307068E-12
  0.818000019      -2.77426021E-12
  0.819000006      -2.67449257E-12
  0.819999993      -2.49492202E-12
  0.820999980      -2.23946426E-12
  0.822000027      -1.91474310E-12
  0.823000014      -1.52994392E-12
  0.824000001      -1.09657585E-12
  0.824999988      -6.28148412E-13
  0.825999975      -1.39773528E-13
  0.827000022       3.52297971E-13
  0.828000009       8.31189338E-13
  0.828999996       1.27994555E-12
  0.829999983       1.68209717E-12
  0.830999970       2.02222158E-12
  0.832000017       2.28648394E-12
  0.833000004       2.46313885E-12
  0.833999991       2.54297321E-12
  0.834999979       2.51967696E-12
  0.836000025       2.39012542E-12
  0.837000012       2.15456320E-12
  0.838000000       1.81668005E-12
  0.838999987       1.38357435E-12
  0.839999974       8.65602620E-13
  0.841000021       2.76117779E-13
  0.842000008      -3.68898461E-13
  0.842999995      -1.05129837E-12
  0.843999982      -1.75131372E-12
  0.845000029      -2.44816754E-12
  0.846000016      -3.12073306E-12
  0.847000003      -3.74821918E-12
  0.847999990      -4.31086113E-12
  0.848999977      -4.79059197E-12
  0.850000024      -5.17167342E-12
  0.851000011      -5.44126506E-12
  0.851999998      -5.58990744E-12
  0.852999985      -5.61190591E-12
  0.853999972      -5.50559901E-12
  0.855000019      -5.27349865E-12
  0.856000006      -4.92229391E-12