   0.00000000       0.00000000    
   1.00000005E-03   0.00000000    
   2.00000009E-03   0.00000000    
   3.00000003E-03   0.00000000    
   4.00000019E-03   0.00000000    
   4.99999989E-03   0.00000000    
   6.00000005E-03   0.00000000    
   7.00000022E-03   0.00000000    
   8.00000038E-03   0.00000000    
   8.99999961E-03   0.00000000    
   9.99999978E-03   0.00000000    
   1.09999999E-02   0.00000000    
   1.20000001E-02   0.00000000    
   1.30000003E-02   0.00000000    
   1.40000004E-02   0.00000000    
   1.49999997E-02   0.00000000    
   1.60000008E-02   0.00000000    
   1.70000009E-02   0.00000000    
   1.79999992E-02   0.00000000    
   1.89999994E-02  -3.80788284E-38
   1.99999996E-02  -1.24304534E-37
   2.09999997E-02  -3.09664988E-37
   2.19999999E-02  -6.60718818E-37
   2.30000000E-02  -1.22292263E-36
   2.40000002E-02  -1.89826141E-36
   2.50000004E-02  -2.09240577E-36
   2.60000005E-02   1.12448978E-37
   2.70000007E-02   9.73791172E-36
   2.80000009E-02   3.84518523E-35
   2.89999992E-02   1.11209985E-34
   2.99999993E-02   2.78085574E-34
   3.09999995E-02   6.34384087E-34
   3.20000015E-02   1.35341332E-33
   3.29999998E-02   2.73774912E-33
   3.40000018E-02   5.29631616E-33
   3.50000001E-02   9.85575973E-33
   3.59999985E-02   1.77148306E-32
   3.70000005E-02   3.08489743E-32
   3.79999988E-02   5.21678339E-32
   3.90000008E-02   8.58193631E-32
   3.99999991E-02   1.37518792E-31
   4.10000011E-02   2.14856834E-31
   4.19999994E-02   3.27507208E-31
   4.30000015E-02   4.87207050E-31
   4.39999998E-02   7.07324573E-31
   4.50000018E-02   1.00175835E-30
   4.60000001E-02   1.38283322E-30
   4.69999984E-02   1.85778061E-30
   4.80000004E-02   2.42332298E-30
   4.89999987E-02   3.05784881E-30
   5.00000007E-02   3.71067681E-30
   5.09999990E-02   4.28802359E-30
   5.20000011E-02   4.63550386E-30
   5.29999994E-02   4.51739733E-30
   5.40000014E-02   3.59351482E-30
   5.49999997E-02   1.39533869E-30
   5.60000017E-02  -2.69575273E-30
   5.70000000E-02  -9.46397310E-30
   5.79999983E-02  -1.98624661E-29
   5.90000004E-02  -3.49967712E-29
   5.99999987E-02  -5.60788429E-29
   6.10000007E-02  -8.43401797E-29
   6.19999990E-02  -1.20891441E-28
   6.30000010E-02  -1.66515289E-28
   6.40000030E-02  -2.21379797E-28
   6.49999976E-02  -2.84662461E-28
   6.59999996E-02  -3.54079644E-28
   6.70000017E-02  -4.25323862E-28
   6.80000037E-02  -4.91422596E-28
   6.89999983E-02  -5.42048120E-28
   7.00000003E-02  -5.62826160E-28
   7.10000023E-02  -5.34715142E-28
   7.19999969E-02  -4.33554227E-28
   7.29999989E-02  -2.29907213E-28
   7.40000010E-02   1.10641786E-28
   7.50000030E-02   6.26557733E-28
   7.59999976E-02   1.35858594E-27
   7.69999996E-02   2.34693110E-27
   7.80000016E-02   3.62717551E-27
   7.90000036E-02   5.22475597E-27
   7.99999982E-02   7.14787020E-27
   8.10000002E-02   9.37877655E-27
   8.20000023E-02   1.18635744E-26
   8.29999968E-02   1.45007210E-26
   8.39999989E-02   1.71287679E-26
   8.50000009E-02   1.95140276E-26
   8.60000029E-02   2.13392160E-26
   8.69999975E-02   2.21944013E-26
   8.79999995E-02   2.15719346E-26
   8.90000015E-02   1.88673373E-26
   9.00000036E-02   1.33884040E-26
   9.09999982E-02   4.37494824E-27
   9.20000002E-02  -8.96834547E-27
   9.30000022E-02  -2.74235938E-26
   9.39999968E-02  -5.16939103E-26
   9.49999988E-02  -8.23187879E-26
   9.60000008E-02  -1.19570174E-25
   9.70000029E-02  -1.63330248E-25
   9.79999974E-02  -2.12953445E-25
   9.89999995E-02  -2.67117177E-25
  0.100000001      -3.23668693E-25
  0.101000004      -3.79477200E-25
  0.101999998      -4.30304247E-25
  0.103000000      -4.70707287E-25
  0.104000002      -4.93994708E-25
  0.104999997      -4.92251966E-25
  0.105999999      -4.56460706E-25
  0.107000001      -3.76732654E-25
  0.108000003      -2.42679154E-25
  0.108999997      -4.39344957E-26
  0.109999999       2.29153591E-25
  0.111000001       5.84660020E-25
  0.112000003       1.02804856E-24
  0.112999998       1.56098366E-24
  0.114000000       2.18001770E-24
  0.115000002       2.87520256E-24
  0.115999997       3.62868759E-24
  0.116999999       4.41339356E-24
  0.118000001       5.19186438E-24
  0.119000003       5.91541944E-24
  0.119999997       6.52374597E-24
  0.120999999       6.94508092E-24
  0.122000001       7.09713071E-24
  0.123000003       6.88888720E-24
  0.123999998       6.22346331E-24
  0.125000000       5.00206997E-24
  0.126000002       3.12919230E-24
  0.127000004       5.18986856E-25
  0.128000006      -2.89715301E-24
  0.128999993      -7.16200032E-24
  0.129999995      -1.22830960E-23
  0.130999997      -1.82228762E-23
  0.131999999      -2.48887888E-23
  0.133000001      -3.21239244E-23
  0.134000003      -3.96988381E-23
  0.135000005      -4.73053253E-23
  0.136000007      -5.45529501E-23
  0.136999995      -6.09692040E-23
  0.137999997      -6.60041308E-23
  0.138999999      -6.90402671E-23
  0.140000001      -6.94085768E-23
  0.141000003      -6.64109243E-23
  0.142000005      -5.93493507E-23
  0.143000007      -4.75622194E-23
  0.143999994      -3.04667548E-23
  0.144999996      -7.60723026E-24
  0.145999998       2.12925107E-23
  0.147000000       5.62740301E-23
  0.148000002       9.70890748E-23
  0.149000004       1.43147003E-22
  0.150000006       1.93468137E-22
  0.150999993       2.46646765E-22
  0.151999995       3.00827575E-22
  0.152999997       3.53699709E-22
  0.153999999       4.02512099E-22
  0.155000001       4.44114048E-22
  0.156000003       4.75023512E-22
  0.157000005       4.91525674E-22
  0.158000007       4.89802600E-22
  0.158999994       4.66093505E-22
  0.159999996       4.16883782E-22
  0.160999998       3.39118555E-22
  0.162000000       2.30435156E-22
  0.163000003       8.94063648E-23
  0.164000005      -8.42155275E-23
  0.165000007      -2.89265575E-22
  0.165999994      -5.22957578E-22
  0.166999996      -7.80714509E-22
  0.167999998      -1.05605307E-21
  0.169000000      -1.34053787E-21
  0.170000002      -1.62381885E-21
  0.171000004      -1.89376579E-21
  0.172000006      -2.13670769E-21
  0.172999993      -2.33778568E-21
  0.173999995      -2.48141845E-21
  0.174999997      -2.55187965E-21
  0.175999999      -2.53397329E-21
  0.177000001      -2.41379300E-21
  0.178000003      -2.17954195E-21
  0.179000005      -1.82238067E-21
  0.180000007      -1.33726832E-21
  0.180999994      -7.23754662E-22
  0.181999996       1.33241384E-23
  0.182999998       8.63293428E-22
  0.184000000       1.80928089E-21
  0.185000002       2.82809598E-21
  0.186000004       3.89038996E-21
  0.187000006       4.96112680E-21
  0.187999994       6.00038957E-21
  0.188999996       6.96452956E-21
  0.189999998       7.80764067E-21
  0.191000000       8.48334787E-21
  0.192000002       8.94683963E-21
  0.193000004       9.15709456E-21
  0.194000006       9.07919580E-21
  0.194999993       8.68663882E-21
  0.195999995       7.96349879E-21
  0.196999997       6.90632965E-21
  0.197999999       5.52564525E-21
  0.199000001       3.84685756E-21
  0.200000003       1.91052832E-21
  0.201000005      -2.28168992E-22
  0.202000007      -2.50086103E-21
  0.202999994      -4.82830817E-21
  0.203999996      -7.12366570E-21
  0.204999998      -9.29660778E-21
  0.206000000      -1.12582254E-20
  0.207000002      -1.29265057E-20
  0.208000004      -1.42321675E-20
  0.209000006      -1.51245661E-20
  0.209999993      -1.55772908E-20
  0.210999995      -1.55931058E-20
  0.211999997      -1.52077737E-20
  0.213000000      -1.44923675E-20
  0.214000002      -1.35536306E-20
  0.215000004      -1.25320343E-20
  0.216000006      -1.15972152E-20
  0.216999993      -1.09405840E-20
  0.217999995      -1.07650303E-20
  0.218999997      -1.12717988E-20
  0.219999999      -1.26447804E-20
  0.221000001      -1.50326699E-20
  0.222000003      -1.85296406E-20
  0.223000005      -2.31553961E-20
  0.224000007      -2.88356519E-20
  0.224999994      -3.53842792E-20
  0.225999996      -4.24884908E-20
  0.226999998      -4.96985169E-20
  0.228000000      -5.64232691E-20
  0.229000002      -6.19334617E-20
  0.230000004      -6.53734344E-20
  0.231000006      -6.57828759E-20
  0.231999993      -6.21291416E-20
  0.232999995      -5.33505323E-20
  0.233999997      -3.84104161E-20
  0.234999999      -1.63614144E-20
  0.236000001       1.35817499E-20
  0.237000003       5.19628431E-20
  0.238000005       9.90009953E-20
  0.238999993       1.54507386E-19
  0.239999995       2.17805935E-19
  0.240999997       2.87662786E-19
  0.241999999       3.62229576E-19
  0.243000001       4.39006206E-19
  0.244000003       5.14828269E-19
  0.245000005       5.85884325E-19
  0.246000007       6.47767774E-19
  0.246999994       6.95567130E-19
  0.247999996       7.23997172E-19
  0.248999998       7.27572350E-19
  0.250000000       7.00821433E-19
  0.250999987       6.38541040E-19
  0.252000004       5.36083140E-19
  0.252999991       3.89668863E-19
  0.254000008       1.96719253E-19
  0.254999995      -4.38095112E-20
  0.256000012      -3.31100443E-19
  0.256999999      -6.62176123E-19
  0.257999986      -1.03164229E-18
  0.259000003      -1.43149395E-18
  0.259999990      -1.85100191E-18
  0.261000007      -2.27669862E-18
  0.261999995      -2.69247848E-18
  0.263000011      -3.07982896E-18
  0.263999999      -3.41820146E-18
  0.264999986      -3.68552762E-18
  0.266000003      -3.85888317E-18
  0.266999990      -3.91529358E-18
  0.268000007      -3.83266816E-18
  0.268999994      -3.59084522E-18
  0.270000011      -3.17271535E-18
  0.270999998      -2.56539645E-18
  0.272000015      -1.76141122E-18
  0.273000002      -7.59822416E-19
  0.273999989       4.32726923E-19
  0.275000006       1.80112747E-18
  0.275999993       3.32112830E-18
  0.277000010       4.95893082E-18
  0.277999997       6.67110659E-18
  0.279000014       8.40488873E-18
  0.280000001       1.00988769E-17
  0.280999988       1.16841834E-17
  0.282000005       1.30860378E-17
  0.282999992       1.42258456E-17
  0.284000009       1.50236844E-17
  0.284999996       1.54011881E-17
  0.286000013       1.52847691E-17
  0.287000000       1.46090833E-17
  0.287999988       1.33206395E-17
  0.289000005       1.13814279E-17
  0.289999992       8.77242410E-18
  0.291000009       5.49682817E-18
  0.291999996       1.58285322E-18
  0.293000013      -2.91407644E-18
  0.294000000      -7.90989227E-18
  0.294999987      -1.32913647E-17
  0.296000004      -1.89166296E-17
  0.296999991      -2.46168702E-17
  0.298000008      -3.01992260E-17
  0.298999995      -3.54509891E-17
  0.300000012      -4.01450207E-17
  0.300999999      -4.40464147E-17
  0.301999986      -4.69202089E-17
  0.303000003      -4.85400469E-17
  0.303999990      -4.86975223E-17
  0.305000007      -4.72119423E-17
  0.305999994      -4.39402014E-17
  0.307000011      -3.87863864E-17
  0.307999998      -3.17107033E-17
  0.308999985      -2.27373719E-17
  0.310000002      -1.19609738E-17
  0.310999990       4.49047610E-19
  0.312000006       1.42461876E-17
  0.312999994       2.91072913E-17
  0.314000010       4.46358239E-17
  0.314999998       6.03682301E-17
  0.316000015       7.57834091E-17
  0.317000002       9.03153711E-17
  0.317999989       1.03368850E-16
  0.319000006       1.14337629E-16
  0.319999993       1.22625238E-16
  0.321000010       1.27667387E-16
  0.321999997       1.28955565E-16
  0.323000014       1.26060975E-16
  0.324000001       1.18658040E-16
  0.324999988       1.06546494E-16
  0.326000005       8.96710900E-17
  0.326999992       6.81379971E-17
  0.328000009       4.22269582E-17
  0.328999996       1.23982901E-17
  0.330000013      -2.07059818E-17
  0.331000000      -5.62674722E-17
  0.331999987      -9.33037099E-17
  0.333000004      -1.30687549E-16
  0.333999991      -1.67173652E-16
  0.335000008      -2.01431688E-16
  0.335999995      -2.32085810E-16
  0.337000012      -2.57759299E-16
  0.338000000      -2.77123584E-16
  0.338999987      -2.88949646E-16
  0.340000004      -2.92160854E-16
  0.340999991      -2.85884763E-16
  0.342000008      -2.69502432E-16
  0.342999995      -2.42692780E-16
  0.344000012      -2.05470182E-16
  0.344999999      -1.58213367E-16
  0.345999986      -1.01683572E-16
  0.347000003      -3.70305500E-17
  0.347999990       3.42148603E-17
  0.349000007       1.10162577E-16
  0.349999994       1.88599866E-16
  0.351000011       2.67042542E-16
  0.351999998       3.42800481E-16
  0.352999985       4.13055564E-16
  0.354000002       4.74951067E-16
  0.354999989       5.25689505E-16
  0.356000006       5.62636553E-16
  0.356999993       5.83427453E-16
  0.358000010       5.86072208E-16
  0.358999997       5.69055951E-16
  0.360000014       5.31430271E-16
  0.361000001       4.72891348E-16
  0.361999989       3.93841151E-16
  0.363000005       2.95428337E-16
  0.363999993       1.79565466E-16
  0.365000010       4.89201364E-17
  0.365999997      -9.31213199E-17
  0.367000014      -2.42518794E-16
  0.368000001      -3.94671508E-16
  0.368999988      -5.44538212E-16
  0.370000005      -6.86781937E-16
  0.370999992      -8.15936144E-16
  0.372000009      -9.26587976E-16
  0.372999996      -1.01357222E-15
  0.374000013      -1.07217155E-15
  0.375000000      -1.09831469E-15
  0.375999987      -1.08876599E-15
  0.377000004      -1.04129858E-15
  0.377999991      -9.54844465E-16
  0.379000008      -8.29613238E-16
  0.379999995      -6.67174501E-16
  0.381000012      -4.70497315E-16
  0.381999999      -2.43943001E-16
  0.382999986       6.79224802E-18
  0.384000003       2.74785429E-16
  0.384999990       5.52045729E-16
  0.386000007       8.29721817E-16
  0.386999995       1.09835334E-15
  0.388000011       1.34816009E-15
  0.388999999       1.56936210E-15
  0.389999986       1.75251932E-15
  0.391000003       1.88888263E-15
  0.391999990       1.97074074E-15
  0.393000007       1.99175478E-15
  0.393999994       1.94726352E-15
  0.395000011       1.83455054E-15
  0.395999998       1.65305732E-15
  0.397000015       1.40453563E-15
  0.398000002       1.09312725E-15
  0.398999989       7.25364341E-16
  0.400000006       3.10087062E-16
  0.400999993      -1.41724957E-16
  0.402000010      -6.17205380E-16
  0.402999997      -1.10193428E-15
  0.404000014      -1.58034452E-15
  0.405000001      -2.03619076E-15
  0.405999988      -2.45306840E-15
  0.407000005      -2.81496535E-15
  0.407999992      -3.10683172E-15
  0.409000009      -3.31514508E-15
  0.409999996      -3.42845310E-15
  0.411000013      -3.43787189E-15
  0.412000000      -3.33752199E-15
  0.412999988      -3.12488073E-15
  0.414000005      -2.80103631E-15
  0.414999992      -2.37082955E-15
  0.416000009      -1.84287116E-15
  0.416999996      -1.22943052E-15
  0.418000013      -5.46191938E-16
  0.419000000       1.88119493E-16
  0.419999987       9.52233910E-16
  0.421000004       1.72294337E-15
  0.421999991       2.47580234E-15
  0.423000008       3.18590161E-15
  0.423999995       3.82869141E-15
  0.425000012       4.38082772E-15
  0.425999999       4.82100830E-15
  0.426999986       5.13077545E-15
  0.428000003       5.29524934E-15
  0.428999990       5.30376753E-15
  0.430000007       5.15039993E-15
  0.430999994       4.83431942E-15
  0.432000011       4.36000977E-15
  0.432999998       3.73729486E-15
  0.433999985       2.98118116E-15
  0.435000002       2.11151846E-15
  0.435999990       1.15247589E-15
  0.437000006       1.31852325E-16
  0.437999994      -9.19762055E-16
  0.439000010      -1.96994791E-15
  0.439999998      -2.98551162E-15
  0.441000015      -3.93359729E-15
  0.442000002      -4.78281770E-15
  0.442999989      -5.50436568E-15
  0.444000006      -6.07305979E-15
  0.444999993      -6.46829172E-15
  0.446000010      -6.67483181E-15
  0.446999997      -6.68346307E-15
  0.448000014      -6.49141317E-15
  0.449000001      -6.10256788E-15
  0.449999988      -5.52744733E-15
  0.451000005      -4.78294518E-15
  0.451999992      -3.89183010E-15
  0.453000009      -2.88202706E-15
  0.453999996      -1.78569877E-15
  0.455000013      -6.38156475E-16
  0.456000000       5.23360694E-16
  0.456999987       1.66099519E-15
  0.458000004       2.73762023E-15
  0.458999991       3.71818072E-15
  0.460000008       4.57096925E-15
  0.460999995       5.26879608E-15
  0.462000012       5.78999281E-15
  0.463000000       6.11922266E-15
  0.463999987       6.24805171E-15
  0.465000004       6.17526067E-15
  0.465999991       5.90688040E-15
  0.467000008       5.45594674E-15
  0.467999995       4.84197787E-15
  0.469000012       4.09019505E-15
  0.469999999       3.23051675E-15
  0.470999986       2.29635820E-15
  0.472000003       1.32329247E-15
  0.472999990       3.47620072E-16
  0.474000007      -5.95089297E-16
  0.474999994      -1.47142403E-15
  0.476000011      -2.25146482E-15
  0.476999998      -2.90996602E-15
  0.477999985      -3.42733438E-15
  0.479000002      -3.79035724E-15
  0.479999989      -3.99264650E-15
  0.481000006      -4.03477538E-15
  0.481999993      -3.92409782E-15
  0.483000010      -3.67425486E-15
  0.483999997      -3.30438966E-15
  0.485000014      -2.83810036E-15
  0.486000001      -2.30217859E-15
  0.486999989      -1.72519065E-15
  0.488000005      -1.13596944E-15
  0.488999993      -5.62087252E-16
  0.490000010      -2.83865556E-17
  0.490999997       4.44353908E-16
  0.492000014       8.40547587E-16
  0.493000001       1.15065741E-15
  0.493999988       1.37172804E-15
  0.495000005       1.50755263E-15
  0.495999992       1.56845048E-15
  0.497000009       1.57064885E-15
  0.497999996       1.53528523E-15
  0.499000013       1.48706099E-15
  0.500000000       1.45260189E-15
  0.500999987       1.45859518E-15
  0.501999974       1.52979137E-15
  0.503000021       1.68696882E-15
  0.504000008       1.94496849E-15
  0.504999995       2.31091277E-15
  0.505999982       2.78271414E-15
  0.507000029       3.34798306E-15
  0.508000016       3.98342146E-15
  0.509000003       4.65478105E-15
  0.509999990       5.31743567E-15
  0.510999978       5.91760002E-15
  0.512000024       6.39418734E-15
  0.513000011       6.68127730E-15
  0.513999999       6.71113013E-15
  0.514999986       6.41764846E-15
  0.515999973       5.74016525E-15
  0.517000020       4.62740621E-15
  0.518000007       3.04145327E-15
  0.518999994       9.61527132E-16
  0.519999981      -1.61260875E-15
  0.521000028      -4.65781681E-15
  0.522000015      -8.12550998E-15
  0.523000002      -1.19405006E-14
  0.523999989      -1.60009182E-14
  0.524999976      -2.01792962E-14
  0.526000023      -2.43248991E-14
  0.527000010      -2.82673106E-14
  0.527999997      -3.18212423E-14
  0.528999984      -3.47924780E-14
  0.529999971      -3.69848093E-14
  0.531000018      -3.82077555E-14
  0.532000005      -3.82848558E-14
  0.532999992      -3.70622044E-14
  0.533999979      -3.44169104E-14
  0.535000026      -3.02651784E-14
  0.536000013      -2.45695882E-14
  0.537000000      -1.73452747E-14
  0.537999988      -8.66463544E-15
  0.538999975       1.33973571E-15
  0.540000021       1.24741373E-14
  0.541000009       2.44850882E-14
  0.541999996       3.70630142E-14
  0.542999983       4.98483565E-14
  0.544000030       6.24400298E-14
  0.545000017       7.44061320E-14
  0.546000004       8.52966650E-14
  0.546999991       9.46578902E-14
  0.547999978       1.02048022E-13
  0.549000025       1.07053655E-13
  0.550000012       1.09306444E-13
  0.550999999       1.08499425E-13
  0.551999986       1.04402361E-13
  0.552999973       9.68754631E-14
  0.554000020       8.58808941E-14
  0.555000007       7.14915052E-14
  0.555999994       5.38962829E-14
  0.556999981       3.34020938E-14
  0.558000028       1.04314420E-14
  0.559000015      -1.44839551E-14
  0.560000002      -4.07137770E-14
  0.560999990      -6.75438099E-14
  0.561999977      -9.41944615E-14
  0.563000023      -1.19842680E-13
  0.564000010      -1.43646651E-13
  0.564999998      -1.64772669E-13
  0.565999985      -1.82423195E-13
  0.566999972      -1.95865392E-13
  0.568000019      -2.04459022E-13
  0.569000006      -2.07682653E-13
  0.569999993      -2.05157384E-13
  0.570999980      -1.96666888E-13
  0.572000027      -1.82173016E-13
  0.573000014      -1.61826187E-13
  0.574000001      -1.35969862E-13
  0.574999988      -1.05138730E-13
  0.575999975      -7.00503159E-14
  0.577000022      -3.15900125E-14
  0.578000009       9.21035421E-15
  0.578999996       5.11998179E-14
  0.579999983       9.31409423E-14
  0.580999970       1.33746828E-13
  0.582000017       1.71721510E-13
  0.583000004       2.05802389E-13
  0.583999991       2.34803361E-13
  0.584999979       2.57657231E-13
  0.586000025       2.73455900E-13
  0.587000012       2.81486694E-13
  0.588000000       2.81263592E-13
  0.588999987       2.72552244E-13
  0.589999974       2.55386993E-13
  0.591000021       2.30079817E-13
  0.592000008       1.97220061E-13
  0.592999995       1.57664558E-13
  0.593999982       1.12518501E-13
  0.595000029       6.31070242E-14
  0.596000016       1.09382193E-14
  0.597000003      -4.23413847E-14
  0.597999990      -9.49977198E-14
  0.598999977      -1.45264849E-13
  0.600000024      -1.91403750E-13
  0.601000011      -2.31762201E-13
  0.601999998      -2.64833728E-13
  0.602999985      -2.89313766E-13
  0.603999972      -3.04150585E-13
  0.605000019      -3.08589417E-13
  0.606000006      -3.02207939E-13
  0.606999993      -2.84941396E-13
  0.607999980      -2.57096319E-13
  0.609000027      -2.19352111E-13
  0.610000014      -1.72749646E-13
  0.611000001      -1.18667310E-13
  0.611999989      -5.87845677E-14
  0.612999976       4.96591785E-15
  0.614000022       7.04563632E-14
  0.615000010       1.35430499E-13
  0.615999997       1.97576615E-13
  0.616999984       2.54604877E-13
  0.617999971       3.04326199E-13
  0.619000018       3.44730131E-13
  0.620000005       3.74058938E-13
  0.620999992       3.90875347E-13
  0.621999979       3.94121422E-13
  0.623000026       3.83166128E-13
  0.624000013       3.57839789E-13
  0.625000000       3.18454003E-13
  0.625999987       2.65805607E-13
  0.626999974       2.01164443E-13
  0.628000021       1.26244623E-13
  0.629000008       4.31602047E-14
  0.629999995      -4.56340796E-14
  0.630999982      -1.37414955E-13
  0.632000029      -2.29273740E-13
  0.633000016      -3.18207890E-13
  0.634000003      -4.01217796E-13
  0.634999990      -4.75406173E-13
  0.635999978      -5.38076094E-13
  0.637000024      -5.86824805E-13
  0.638000011      -6.19629890E-13
  0.638999999      -6.34924676E-13
  0.639999986      -6.31659926E-13
  0.640999973      -6.09349810E-13
  0.642000020      -5.68099983E-13
  0.643000007      -5.08616749E-13
  0.643999994      -4.32196081E-13
  0.644999981      -3.40693402E-13
  0.646000028      -2.36473872E-13
  0.647000015      -1.22345222E-13
  0.648000002      -1.47466488E-15
  0.648999989       1.22707346E-13
  0.649999976       2.46613439E-13
  0.651000023       3.66612394E-13
  0.652000010       4.79145207E-13
  0.652999997       5.80840118E-13
  0.653999984       6.68622872E-13
  0.654999971       7.39818417E-13
  0.656000018       7.92240134E-13
  0.657000005       8.24264160E-13
  0.657999992       8.34885058E-13
  0.658999979       8.23751874E-13
  0.660000026       7.91182115E-13
  0.661000013       7.38154004E-13
  0.662000000       6.66276062E-13
  0.662999988       5.77735776E-13
  0.663999975       4.75228147E-13
  0.665000021       3.61867139E-13
  0.666000009       2.41082517E-13
  0.666999996       1.16505736E-13
  0.667999983      -8.15134449E-15
  0.669000030      -1.29220555E-13
  0.670000017      -2.43200208E-13
  0.671000004      -3.46872189E-13
  0.671999991      -4.37409278E-13
  0.672999978      -5.12468702E-13
  0.674000025      -5.70268876E-13
  0.675000012      -6.09646285E-13
  0.675999999      -6.30090489E-13
  0.676999986      -6.31755878E-13
  0.677999973      -6.15449911E-13
  0.679000020      -5.82597826E-13
  0.680000007      -5.35185123E-13
  0.680999994      -4.75680096E-13
  0.681999981      -4.06938372E-13
  0.683000028      -3.32093890E-13
  0.684000015      -2.54439319E-13
  0.685000002      -1.77300584E-13
  0.685999990      -1.03910214E-13
  0.686999977      -3.72837713E-14
  0.688000023       1.98958502E-14
  0.689000010       6.53820124E-14
  0.689999998       9.74519605E-14
  0.690999985       1.14975087E-13
  0.691999972       1.17459319E-13
  0.693000019       1.05073529E-13
  0.694000006       7.86451863E-14
  0.694999993       3.96329630E-14
  0.695999980      -9.92481549E-15
  0.697000027      -6.74842601E-14
  0.698000014      -1.30089976E-13
  0.699000001      -1.94485853E-13
  0.699999988      -2.57238621E-13
  0.700999975      -3.14869848E-13
  0.702000022      -3.63991552E-13
  0.703000009      -4.01440410E-13
  0.703999996      -4.24405763E-13
  0.704999983      -4.30546630E-13
  0.705999970      -4.18093213E-13
  0.707000017      -3.85929000E-13
  0.708000004      -3.33650506E-13
  0.708999991      -2.61601803E-13
  0.709999979      -1.70882514E-13
  0.711000025      -6.33286148E-14
  0.712000012       5.85336155E-14
  0.713000000       1.91559225E-13
  0.713999987       3.32079470E-13
  0.714999974       4.76017012E-13
  0.716000021       6.19017153E-13
  0.717000008       7.56591296E-13
  0.717999995       8.84267106E-13
  0.718999982       9.97740302E-13
  0.720000029       1.09302324E-12
  0.721000016       1.16658365E-12
  0.722000003       1.21547087E-12
  0.722999990       1.23742227E-12
  0.723999977       1.23094872E-12
  0.725000024       1.19539361E-12
  0.726000011       1.13096500E-12
  0.726999998       1.03873811E-12
  0.727999985       9.20628916E-13
  0.728999972       7.79339484E-13
  0.730000019       6.18276318E-13
  0.731000006       4.41444624E-13
  0.731999993       2.53322347E-13
  0.732999980       5.87179502E-14
  0.734000027      -1.37382971E-13
  0.735000014      -3.29977040E-13
  0.736000001      -5.14202775E-13
  0.736999989      -6.85495280E-13
  0.737999976      -8.39730358E-13
  0.739000022      -9.73352800E-13
  0.740000010      -1.08348486E-12
  0.740999997      -1.16801133E-12
  0.741999984      -1.22563678E-12
  0.742999971      -1.25591540E-12
  0.744000018      -1.25924997E-12
  0.745000005      -1.23686228E-12
  0.745999992      -1.19073425E-12
  0.746999979      -1.12352369E-12
  0.748000026      -1.03845665E-12
  0.749000013      -9.39200107E-13
  0.750000000      -8.29721057E-13
  0.750999987      -7.14135999E-13
  0.751999974      -5.96556550E-13
  0.753000021      -4.80937068E-13
  0.754000008      -3.70929985E-13
  0.754999995      -2.69753892E-13
  0.755999982      -1.80079245E-13
  0.757000029      -1.03936228E-13
  0.758000016      -4.26478954E-14
  0.759000003       3.20873190E-15
  0.759999990       3.38122102E-14
  0.760999978       5.00764930E-14
  0.762000024       5.36016408E-14
  0.763000011       4.65973627E-14
  0.763999999       3.17821026E-14
  0.764999986       1.22614880E-14
  0.765999973      -8.60930725E-15
  0.767000020      -2.73740821E-14
  0.768000007      -4.06293990E-14
  0.768999994      -4.51776576E-14
  0.769999981      -3.81736370E-14
  0.771000028      -1.72586385E-14
  0.772000015       1.93230340E-14
  0.773000002       7.26300259E-14
  0.773999989       1.42956366E-13
  0.774999976       2.29793262E-13
  0.776000023       3.31822379E-13
  0.777000010       4.46941285E-13
  0.777999997       5.72320728E-13
  0.778999984       7.04492183E-13
  0.779999971       8.39463048E-13
  0.781000018       9.72855260E-13
  0.782000005       1.10006307E-12
  0.782999992       1.21642388E-12
  0.783999979       1.31739617E-12
  0.785000026       1.39873833E-12
  0.786000013       1.45668070E-12
  0.787000000       1.48808505E-12
  0.787999988       1.49058457E-12
  0.788999975       1.46269878E-12
  0.790000021       1.40391865E-12
  0.791000009       1.31475722E-12
  0.791999996       1.19676350E-12
  0.792999983       1.05249793E-12
  0.794000030       8.85469161E-13
  0.795000017       7.00033239E-13
  0.796000004       5.01258160E-13
  0.796999991       2.94757599E-13
  0.797999978       8.64989910E-14
  0.799000025      -1.17407386E-13
  0.800000012      -3.10931429E-13
  0.800999999      -4.88350246E-13
  0.801999986      -6.44471022E-13
  0.802999973      -7.74841129E-13
  0.804000020      -8.75937452E-13
  0.805000007      -9.45327367E-13
  0.805999994      -9.81793423E-13
  0.806999981      -9.85417694E-13
  0.808000028      -9.57618967E-13
  0.809000015      -9.01141575E-13
  0.810000002      -8.19993053E-13
  0.810999990      -7.19331495E-13
  0.811999977      -6.05305194E-13
  0.813000023      -4.84847351E-13
  0.814000010      -3.65432755E-13
  0.814999998      -2.54802933E-13
  0.815999985      -1.60668733E-13
  0.816999972      -9.04001334E-14
  0.818000019      -5.07140039E-14
  0.819000006      -4.73709545E-14
  0.819999993      -8.48926642E-14
  0.820999980      -1.66310759E-13
  0.822000027      -2.92957661E-13
  0.823000014      -4.64308821E-13
  0.824000001      -6.77884615E-13
  0.824999988      -9.29217532E-13
  0.825999975      -1.21189018E-12
  0.827000022      -1.51764441E-12
  0.828000009      -1.83656280E-12
  0.828999996      -2.15731925E-12
  0.829999983      -2.46749257E-12
  0.830999970      -2.75393618E-12
  0.832000017      -3.00319383E-12
  0.833000004      -3.20194934E-12
  0.833999991      -3.33749543E-12
  0.834999979      -3.39820988E-12
  0.836000025      -3.37401916E-12
  0.837000012      -3.25683729E-12
  0.838000000      -3.04096006E-12
  0.838999987      -2.72340332E-12
  0.839999974      -2.30416879E-12
  0.841000021      -1.78642615E-12
  0.842000008      -1.17660113E-12
  0.842999995      -4.84362875E-13
  0.843999982       2.77494119E-13
  0.845000029       1.09327402E-12
  0.846000016       1.94470720E-12
  0.847000003       2.81137570E-12
  0.847999990       3.67122652E-12
  0.848999977       4.50116116E-12
  0.850000024       5.27768237E-12
  0.851000011       5.97758605E-12
  0.851999998       6.57867250E-12
  0.852999985       7.06045509E-12
  0.853999972       7.40484930E-12
  0.855000019       7.59681554E-12
  0.856000006       7.62492760E-12