   0.00000000       0.00000000    
   1.00000005E-03   0.00000000    
   2.00000009E-03   0.00000000    
   3.00000003E-03   0.00000000    
   4.00000019E-03   0.00000000    
   4.99999989E-03   0.00000000    
   6.00000005E-03   0.00000000    
   7.00000022E-03   0.00000000    
   8.00000038E-03   0.00000000    
   8.99999961E-03   0.00000000    
   9.99999978E-03   0.00000000    
   1.09999999E-02   0.00000000    
   1.20000001E-02   0.00000000    
   1.30000003E-02   0.00000000    
   1.40000004E-02   0.00000000    
   1.49999997E-02   0.00000000    
   1.60000008E-02   0.00000000    
   1.70000009E-02   0.00000000    
   1.79999992E-02   0.00000000    
   1.89999994E-02   1.33059497E-38
   1.99999996E-02   7.17304169E-38
   2.09999997E-02   2.23822969E-37
   2.19999999E-02   5.87767892E-37
   2.30000000E-02   1.42062903E-36
   2.40000002E-02   3.23099947E-36
   2.50000004E-02   7.01475752E-36
   2.60000005E-02   1.46308051E-35
   2.70000007E-02   2.94187809E-35
   2.80000009E-02   5.71701161E-35
   2.89999992E-02   1.07599197E-34
   2.99999993E-02   1.96488013E-34
   3.09999995E-02   3.48697313E-34
   3.20000015E-02   6.02230368E-34
   3.29999998E-02   1.01348818E-33
   3.40000018E-02   1.66374750E-33
   3.50000001E-02   2.66670518E-33
   3.59999985E-02   4.17664163E-33
   3.70000005E-02   6.39636214E-33
   3.79999988E-02   9.58356520E-33
   3.90000008E-02   1.40537197E-32
   3.99999991E-02   2.01769432E-32
   4.10000011E-02   2.83658836E-32
   4.19999994E-02   3.90514211E-32
   4.30000015E-02   5.26432038E-32
   4.39999998E-02   6.94731208E-32
   4.50000018E-02   8.97216576E-32
   4.60000001E-02   1.13330492E-31
   4.69999984E-02   1.39909066E-31
   4.80000004E-02   1.68649021E-31
   4.89999987E-02   1.98267106E-31
   5.00000007E-02   2.27004440E-31
   5.09999990E-02   2.52716051E-31
   5.20000011E-02   2.73086874E-31
   5.29999994E-02   2.86008120E-31
   5.40000014E-02   2.90133705E-31
   5.49999997E-02   2.85610709E-31
   5.60000017E-02   2.74930990E-31
   5.70000000E-02   2.63783424E-31
   5.79999983E-02   2.61688270E-31
   5.90000004E-02   2.82070755E-31
   5.99999987E-02   3.41274081E-31
   6.10000007E-02   4.55839594E-31
   6.19999990E-02   6.37186446E-31
   6.30000010E-02   8.82649462E-31
   6.40000030E-02   1.16168840E-30
   6.49999976E-02   1.39601860E-30
   6.59999996E-02   1.43247952E-30
   6.70000017E-02   1.00771708E-30
   6.80000037E-02  -2.95730352E-31
   6.89999983E-02  -3.10149652E-30
   7.00000003E-02  -8.29790829E-30
   7.10000023E-02  -1.70995180E-29
   7.19999969E-02  -3.11060496E-29
   7.29999989E-02  -5.23503509E-29
   7.40000010E-02  -8.33239206E-29
   7.50000030E-02  -1.26965030E-28
   7.59999976E-02  -1.86591111E-28
   7.69999996E-02  -2.65753536E-28
   7.80000016E-02  -3.67990684E-28
   7.90000036E-02  -4.96453991E-28
   7.99999982E-02  -6.53381652E-28
   8.10000002E-02  -8.39399329E-28
   8.20000023E-02  -1.05263319E-27
   8.29999968E-02  -1.28763160E-27
   8.39999989E-02  -1.53411105E-27
   8.50000009E-02  -1.77556065E-27
   8.60000029E-02  -1.98776982E-27
   8.69999975E-02  -2.13737856E-27
   8.79999995E-02  -2.18058642E-27
   8.90000015E-02  -2.06220432E-27
   9.00000036E-02  -1.71526845E-27
   9.09999982E-02  -1.06148967E-27
   9.20000002E-02  -1.28353120E-29
   9.30000022E-02   1.52542781E-27
   9.39999968E-02   3.64989725E-27
   9.49999988E-02   6.45209643E-27
   9.60000008E-02   1.00091735E-26
   9.70000029E-02   1.43720750E-26
   9.79999974E-02   1.95511641E-26
   9.89999995E-02   2.54994511E-26
  0.100000001       3.20938661E-26
  0.101000004       3.91152674E-26
  0.101999998       4.62282598E-26
  0.103000000       5.29623154E-26
  0.104000002       5.86959907E-26
  0.104999997       6.26466123E-26
  0.105999999       6.38680339E-26
  0.107000001       6.12593942E-26
  0.108000003       5.35881163E-26
  0.108999997       3.95301897E-26
  0.109999999       1.77307736E-26
  0.111000001      -1.31124999E-26
  0.112000003      -5.41418412E-26
  0.112999998      -1.06206821E-25
  0.114000000      -1.69708337E-25
  0.115000002      -2.44422068E-25
  0.115999997      -3.29307175E-25
  0.116999999      -4.22308501E-25
  0.118000001      -5.20163689E-25
  0.119000003      -6.18229749E-25
  0.119999997      -7.10346565E-25
  0.120999999      -7.88757811E-25
  0.122000001      -8.44111836E-25
  0.123000003      -8.65566781E-25
  0.123999998      -8.41023840E-25
  0.125000000      -7.57511622E-25
  0.126000002      -6.01741619E-25
  0.127000004      -3.60848792E-25
  0.128000006      -2.33237882E-26
  0.128999993       4.19867272E-25
  0.129999995       9.73992064E-25
  0.130999997       1.63912309E-24
  0.131999999       2.40862170E-24
  0.133000001       3.26760248E-24
  0.134000003       4.19146885E-24
  0.135000005       5.14462936E-24
  0.136000007       6.07952302E-24
  0.136999995       6.93609343E-24
  0.137999997       7.64187308E-24
  0.138999999       8.11282304E-24
  0.140000001       8.25509253E-24
  0.141000003       7.96782883E-24
  0.142000005       7.14715001E-24
  0.143000007       5.69135375E-24
  0.143999994       3.50736709E-24
  0.144999996       5.18393041E-25
  0.145999998      -3.32738611E-24
  0.147000000      -8.04729079E-24
  0.148000002      -1.36141426E-23
  0.149000004      -1.99462281E-23
  0.150000006      -2.68978029E-23
  0.150999993      -3.42508006E-23
  0.151999995      -4.17085055E-23
  0.152999997      -4.88920117E-23
  0.153999999      -5.53404037E-23
  0.155000001      -6.05154764E-23
  0.156000003      -6.38118548E-23
  0.157000005      -6.45732507E-23
  0.158000007      -6.21153999E-23
  0.158999994      -5.57560703E-23
  0.159999996      -4.48520341E-23
  0.160999998      -2.88427805E-23
  0.162000000      -7.30007464E-24
  0.163000003       2.00179355E-23
  0.164000005       5.31098648E-23
  0.165000007       9.16739486E-23
  0.165999994       1.35053517E-22
  0.166999996       1.82188587E-22
  0.167999998       2.31577452E-22
  0.169000000       2.81252465E-22
  0.170000002       3.28774607E-22
  0.171000004       3.71250816E-22
  0.172000006       4.05378630E-22
  0.172999993       4.27521413E-22
  0.173999995       4.33817205E-22
  0.174999997       4.20322281E-22
  0.175999999       3.83190359E-22
  0.177000001       3.18885169E-22
  0.178000003       2.24423127E-22
  0.179000005       9.76400721E-23
  0.180000007      -6.25261630E-23
  0.180999994      -2.55748377E-22
  0.181999996      -4.80030772E-22
  0.182999998      -7.31453440E-22
  0.184000000      -1.00395826E-21
  0.185000002      -1.28919431E-21
  0.186000004      -1.57644358E-21
  0.187000006      -1.85264466E-21
  0.187999994      -2.10253499E-21
  0.188999996      -2.30892605E-21
  0.189999998      -2.45312629E-21
  0.191000000      -2.51551804E-21
  0.192000002      -2.47629340E-21
  0.193000004      -2.31634139E-21
  0.194000006      -2.01827748E-21
  0.194999993      -1.56758885E-21
  0.195999995      -9.53867685E-22
  0.196999997      -1.72089262E-22
  0.197999999       7.76117255E-22
  0.199000001       1.88126377E-21
  0.200000003       3.12493568E-21
  0.201000005       4.47893099E-21
  0.202000007       5.90469148E-21
  0.202999994       7.35309685E-21
  0.203999996       8.76470318E-21
  0.204999998       1.00704918E-20
  0.206000000       1.11931851E-20
  0.207000002       1.20491773E-20
  0.208000004       1.25510861E-20
  0.209000006       1.26109379E-20
  0.209999993       1.21439404E-20
  0.210999995       1.10727802E-20
  0.211999997       9.33234537E-21
  0.213000000       6.87472957E-21
  0.214000002       3.67435365E-21
  0.215000004      -2.67016088E-22
  0.216000006      -4.91557895E-21
  0.216999993      -1.02014133E-20
  0.217999995      -1.60152636E-20
  0.218999997      -2.22064956E-20
  0.219999999      -2.85824926E-20
  0.221000001      -3.49097683E-20
  0.222000003      -4.09170157E-20
  0.223000005      -4.63002845E-20
  0.224000007      -5.07303957E-20
  0.224999994      -5.38626475E-20
  0.225999996      -5.53487615E-20
  0.226999998      -5.48508957E-20
  0.228000000      -5.20574519E-20
  0.229000002      -4.67003329E-20
  0.230000004      -3.85730702E-20
  0.231000006      -2.75492471E-20
  0.231999993      -1.36004471E-20
  0.232999995       3.18708530E-21
  0.233999997       2.25979669E-20
  0.234999999       4.42763351E-20
  0.236000001       6.77185820E-20
  0.237000003       9.22710797E-20
  0.238000005       1.17133751E-19
  0.238999993       1.41370194E-19
  0.239999995       1.63924902E-19
  0.240999997       1.83647938E-19
  0.241999999       1.99327121E-19
  0.243000001       2.09727483E-19
  0.244000003       2.13637397E-19
  0.245000005       2.09920565E-19
  0.246000007       1.97572464E-19
  0.246999994       1.75779551E-19
  0.247999996       1.43979406E-19
  0.248999998       1.01919269E-19
  0.250000000       4.97104755E-20
  0.250999987      -1.21239265E-20
  0.252000004      -8.26113097E-20
  0.252999991      -1.60304242E-19
  0.254000008      -2.43270561E-19
  0.254999995      -3.29101303E-19
  0.256000012      -4.14938533E-19
  0.256999999      -4.97524840E-19
  0.257999986      -5.73274887E-19
  0.259000003      -6.38370020E-19
  0.259999990      -6.88874153E-19
  0.261000007      -7.20870119E-19
  0.261999995      -7.30613273E-19
  0.263000011      -7.14698525E-19
  0.263999999      -6.70236016E-19
  0.264999986      -5.95030099E-19
  0.266000003      -4.87754286E-19
  0.266999990      -3.48115342E-19
  0.268000007      -1.76998557E-19
  0.268999994       2.34138885E-20
  0.270000011       2.49559202E-19
  0.270999998       4.96452814E-19
  0.272000015       7.57696407E-19
  0.273000002       1.02554090E-18
  0.273999989       1.29100880E-18
  0.275000006       1.54407871E-18
  0.275999993       1.77393122E-18
  0.277000010       1.96925689E-18
  0.277999997       2.11861821E-18
  0.279000014       2.21086084E-18
  0.280000001       2.23556417E-18
  0.280999988       2.18351714E-18
  0.282000005       2.04720543E-18
  0.282999992       1.82129248E-18
  0.284000009       1.50307547E-18
  0.284999996       1.09289563E-18
  0.286000013       5.94482867E-19
  0.287000000       1.52131116E-20
  0.287999988      -6.33739618E-19
  0.289000005      -1.33737579E-18
  0.289999992      -2.07698124E-18
  0.291000009      -2.83038913E-18
  0.291999996      -3.57239826E-18
  0.293000013      -4.27535041E-18
  0.294000000      -4.90986246E-18
  0.294999987      -5.44570427E-18
  0.296000004      -5.85280121E-18
  0.296999991      -6.10234299E-18
  0.298000008      -6.16796612E-18
  0.298999995      -6.02697401E-18
  0.300000012      -5.66155292E-18
  0.300999999      -5.05994198E-18
  0.301999986      -4.21750319E-18
  0.303000003      -3.13764930E-18
  0.303999990      -1.83257129E-18
  0.305000007      -3.23726413E-19
  0.305999994       1.35796070E-18
  0.307000011       3.17222007E-18
  0.307999998       5.06990743E-18
  0.308999985       6.99384682E-18
  0.310000002       8.88004526E-18
  0.310999990       1.06592802E-17
  0.312000006       1.22590317E-17
  0.312999994       1.36057298E-17
  0.314000010       1.46272565E-17
  0.314999998       1.52556474E-17
  0.316000015       1.54299145E-17
  0.317000002       1.50988801E-17
  0.317999989       1.42239497E-17
  0.319000006       1.27816957E-17
  0.319999993       1.07661461E-17
  0.321000010       8.19067377E-18
  0.321999997       5.08937058E-18
  0.323000014       1.51781563E-18
  0.324000001      -2.44684885E-18
  0.324999988      -6.70660298E-18
  0.326000005      -1.11440386E-17
  0.326999992      -1.56246741E-17
  0.328000009      -2.00000907E-17
  0.328999996      -2.41118450E-17
  0.330000013      -2.77960909E-17
  0.331000000      -3.08888233E-17
  0.331999987      -3.32315774E-17
  0.333000004      -3.46774561E-17
  0.333999991      -3.50972800E-17
  0.335000008      -3.43856598E-17
  0.335999995      -3.24667563E-17
  0.337000012      -2.92995082E-17
  0.338000000      -2.48820858E-17
  0.338999987      -1.92553518E-17
  0.340000004      -1.25051155E-17
  0.340999991      -4.76299654E-18
  0.342000008       3.79424521E-18
  0.342999995       1.29470243E-17
  0.344000012       2.24369416E-17
  0.344999999       3.19724994E-17
  0.345999986       4.12364458E-17
  0.347000003       4.98946511E-17
  0.347999990       5.76062806E-17
  0.349000007       6.40350688E-17
  0.349999994       6.88613368E-17
  0.351000011       7.17943803E-17
  0.351999998       7.25849135E-17
  0.352999985       7.10369740E-17
  0.354000002       6.70189872E-17
  0.354999989       6.04734143E-17
  0.356000006       5.14245812E-17
  0.356999993       3.99842598E-17
  0.358000010       2.63546278E-17
  0.358999997       1.08282723E-17
  0.360000014      -6.21495412E-18
  0.361000001      -2.43143818E-17
  0.361999989      -4.29383236E-17
  0.363000005      -6.14970934E-17
  0.363999993      -7.93590727E-17
  0.365000010      -9.58694654E-17
  0.365999997      -1.10371298E-16
  0.367000014      -1.22228059E-16
  0.368000001      -1.30847387E-16
  0.368999988      -1.35704922E-16
  0.370000005      -1.36367593E-16
  0.370999992      -1.32515419E-16
  0.372000009      -1.23960942E-16
  0.372999996      -1.10665516E-16
  0.374000013      -9.27514378E-17
  0.375000000      -7.05094445E-17
  0.375999987      -4.44007061E-17
  0.377000004      -1.50530411E-17
  0.377999991       1.67490459E-17
  0.379000008       5.00805848E-17
  0.379999995       8.38984811E-17
  0.381000012       1.17069668E-16
  0.381999999       1.48404474E-16
  0.382999986       1.76694368E-16
  0.384000003       2.00753161E-16
  0.384999990       2.19460321E-16
  0.386000007       2.31805151E-16
  0.386999995       2.36930203E-16
  0.388000011       2.34172396E-16
  0.388999999       2.23100140E-16
  0.389999986       2.03545035E-16
  0.391000003       1.75626432E-16
  0.391999990       1.39767464E-16
  0.393000007       9.67015958E-17
  0.393999994       4.74684708E-17
  0.395000011      -6.60133556E-18
  0.395999998      -6.39130299E-17
  0.397000015      -1.22645593E-16
  0.398000002      -1.80800519E-16
  0.398999989      -2.36260465E-16
  0.400000006      -2.86856151E-16
  0.400999993      -3.30440020E-16
  0.402000010      -3.64964342E-16
  0.402999997      -3.88561356E-16
  0.404000014      -3.99622707E-16
  0.405000001      -3.96875461E-16
  0.405999988      -3.79451464E-16
  0.407000005      -3.46947448E-16
  0.407999992      -2.99472654E-16
  0.409000009      -2.37681945E-16
  0.409999996      -1.62791659E-16
  0.411000013      -7.65767614E-17
  0.412000000       1.86520526E-17
  0.412999988       1.20092014E-16
  0.414000005       2.24512462E-16
  0.414999992       3.28338822E-16
  0.416000009       4.27754947E-16
  0.416999996       5.18821127E-16
  0.418000013       5.97605461E-16
  0.419000000       6.60323698E-16
  0.419999987       7.03484685E-16
  0.421000004       7.24035505E-16
  0.421999991       7.19501761E-16
  0.423000008       6.88117549E-16
  0.423999995       6.28940069E-16
  0.425000012       5.41943273E-16
  0.425999999       4.28086269E-16
  0.426999986       2.89352040E-16
  0.428000003       1.28753230E-16
  0.428999990      -4.96977557E-17
  0.430000007      -2.41055624E-16
  0.430999994      -4.39546466E-16
  0.432000011      -6.38708053E-16
  0.432999998      -8.31564485E-16
  0.433999985      -1.01083070E-15
  0.435000002      -1.16914232E-15
  0.435999990      -1.29930460E-15
  0.437000006      -1.39455367E-15
  0.437999994      -1.44882021E-15
  0.439000010      -1.45698900E-15
  0.439999998      -1.41514324E-15
  0.441000015      -1.32078525E-15
  0.442000002      -1.17302395E-15
  0.442999989      -9.72720566E-16
  0.444000006      -7.22584908E-16
  0.444999993      -4.27215122E-16
  0.446000010      -9.30762353E-17
  0.446999997       2.71585762E-16
  0.448000014       6.56896285E-16
  0.449000001       1.05156949E-15
  0.449999988       1.44318818E-15
  0.451000005       1.81853993E-15
  0.451999992       2.16400316E-15
  0.453000009       2.46597168E-15
  0.453999996       2.71130799E-15
  0.455000013       2.88780976E-15
  0.456000000       2.98467538E-15
  0.456999987       2.99295450E-15
  0.458000004       2.90596548E-15
  0.458999991       2.71966419E-15
  0.460000008       2.43294968E-15
  0.460999995       2.04789146E-15
  0.462000012       1.56986757E-15
  0.463000000       1.00760159E-15
  0.463999987       3.73092602E-16
  0.465000004      -3.18566630E-16
  0.465999991      -1.04948388E-15
  0.467000008      -1.79937030E-15
  0.467999995      -2.54604657E-15
  0.469000012      -3.26603961E-15
  0.469999999      -3.93525705E-15
  0.470999986      -4.52972044E-15
  0.472000003      -5.02633798E-15
  0.472999990      -5.40369370E-15
  0.474000007      -5.64282296E-15
  0.474999994      -5.72795739E-15
  0.476000011      -5.64720635E-15
  0.476999998      -5.39314856E-15
  0.477999985      -4.96331576E-15
  0.479000002      -4.36054171E-15
  0.479999989      -3.59315865E-15
  0.481000006      -2.67502936E-15
  0.481999993      -1.62540297E-15
  0.483000010      -4.68591120E-16
  0.483999997       7.66534377E-16
  0.485000014       2.04721426E-15
  0.486000001       3.33763211E-15
  0.486999989       4.59988357E-15
  0.488000005       5.79505638E-15
  0.488999993       6.88439750E-15
  0.490000010       7.83052737E-15
  0.490999997       8.59866682E-15
  0.492000014       9.15783816E-15
  0.493000001       9.48199852E-15
  0.493999988       9.55106728E-15
  0.495000005       9.35180786E-15
  0.495999992       8.87852990E-15
  0.497000009       8.13358051E-15
  0.497999996       7.12760437E-15
  0.499000013       5.87954325E-15
  0.500000000       4.41637897E-15
  0.500999987       2.77260544E-15
  0.501999974       9.89443326E-16
  0.503000021      -8.86189957E-16
  0.504000008      -2.80293091E-15
  0.504999995      -4.70640813E-15
  0.505999982      -6.54082738E-15
  0.507000029      -8.25065995E-15
  0.508000016      -9.78237843E-15
  0.509000003      -1.10861925E-14
  0.509999990      -1.21177160E-14
  0.510999978      -1.28395211E-14
  0.512000024      -1.32225146E-14
  0.513000011      -1.32470913E-14
  0.513999999      -1.29040159E-14
  0.514999986      -1.21949942E-14
  0.515999973      -1.11329123E-14
  0.517000020      -9.74171576E-15
  0.518000007      -8.05592877E-15
  0.518999994      -6.11981347E-15
  0.519999981      -3.98618999E-15
  0.521000028      -1.71494610E-15
  0.522000015       6.28722434E-16
  0.523000002       2.97629124E-15
  0.523999989       5.25804299E-15
  0.524999976       7.40529481E-15
  0.526000023       9.35264219E-15
  0.527000010       1.10401444E-14
  0.527999997       1.24153727E-14
  0.528999984       1.34352588E-14
  0.529999971       1.40676587E-14
  0.531000018       1.42925815E-14
  0.532000005       1.41030376E-14
  0.532999992       1.35054516E-14
  0.533999979       1.25196298E-14
  0.535000026       1.11782642E-14
  0.536000013       9.52598748E-15
  0.537000000       7.61798817E-15
  0.537999988       5.51823966E-15
  0.538999975       3.29738703E-15
  0.540000021       1.03035925E-15
  0.541000009      -1.20621166E-15
  0.541999996      -3.33667877E-15
  0.542999983      -5.28908294E-15
  0.544000030      -6.99777159E-15
  0.545000017      -8.40583808E-15
  0.546000004      -9.46729064E-15
  0.546999991      -1.01488625E-14
  0.547999978      -1.04313954E-14
  0.549000025      -1.03107279E-14
  0.550000012      -9.79804854E-15
  0.550999999      -8.91968807E-15
  0.551999986      -7.71634648E-15
  0.552999973      -6.24175953E-15
  0.554000020      -4.56085695E-15
  0.555000007      -2.74744983E-15
  0.555999994      -8.81534452E-16
  0.556999981       9.53705524E-16
  0.558000028       2.67508950E-15
  0.559000015       4.20271025E-15
  0.560000002       5.46316642E-15
  0.560999990       6.39262923E-15
  0.561999977       6.93963167E-15
  0.563000023       7.06745741E-15
  0.564000010       6.75603897E-15
  0.564999998       6.00326809E-15
  0.565999985       4.82565978E-15
  0.566999972       3.25832357E-15
  0.568000019       1.35421679E-15
  0.569000006      -8.17306273E-16
  0.569999993      -3.17262331E-15
  0.570999980      -5.61658908E-15
  0.572000027      -8.04581689E-15
  0.573000014      -1.03523842E-14
  0.574000001      -1.24278410E-14
  0.574999988      -1.41673909E-14
  0.575999975      -1.54740705E-14
  0.577000022      -1.62627954E-14
  0.578000009      -1.64641030E-14
  0.578999996      -1.60274558E-14
  0.579999983      -1.49239531E-14
  0.580999970      -1.31483459E-14
  0.582000017      -1.07202421E-14
  0.583000004      -7.68445230E-15
  0.583999991      -4.11041754E-15
  0.584999979      -9.07167787E-17
  0.586000025       4.26131942E-15
  0.587000012       8.81483132E-15
  0.588000000       1.34253960E-14
  0.588999987       1.79396208E-14
  0.589999974       2.22002169E-14
  0.591000021       2.60513690E-14
  0.592000008       2.93442469E-14
  0.592999995       3.19424290E-14
  0.593999982       3.37270732E-14
  0.595000029       3.46016178E-14
  0.596000016       3.44958471E-14
  0.597000003       3.33691577E-14
  0.597999990       3.12128660E-14
  0.598999977       2.80514984E-14
  0.600000024       2.39429465E-14
  0.601000011       1.89774615E-14
  0.601999998       1.32755313E-14
  0.602999985       6.98464258E-15
  0.603999972       2.75052933E-16
  0.605000019      -6.66531624E-15
  0.606000006      -1.36366977E-14
  0.606999993      -2.04338194E-14
  0.607999980      -2.68525470E-14
  0.609000027      -3.26966136E-14
  0.610000014      -3.77841814E-14
  0.611000001      -4.19540128E-14
  0.611999989      -4.50710365E-14
  0.612999976      -4.70310673E-14
  0.614000022      -4.77645572E-14
  0.615000010      -4.72391732E-14
  0.615999997      -4.54611426E-14
  0.616999984      -4.24752735E-14
  0.617999971      -3.83636604E-14
  0.619000018      -3.32430955E-14
  0.620000005      -2.72612641E-14
  0.620999992      -2.05918724E-14
  0.621999979      -1.34288459E-14
  0.623000026      -5.97983280E-15
  0.624000013       1.54077199E-15
  0.625000000       8.91902824E-15
  0.625999987       1.59486072E-14
  0.626999974       2.24376537E-14
  0.628000021       2.82150791E-14
  0.629000008       3.31360881E-14
  0.629999995       3.70866667E-14
  0.630999982       3.99869584E-14
  0.632000029       4.17933002E-14
  0.633000016       4.24989261E-14
  0.634000003       4.21332552E-14
  0.634999990       4.07598421E-14
  0.635999978       3.84730496E-14
  0.637000024       3.53935631E-14
  0.638000011       3.16629725E-14
  0.638999999       2.74375944E-14
  0.639999986       2.28818294E-14
  0.640999973       1.81612910E-14
  0.642000020       1.34360144E-14
  0.643000007       8.85401168E-15
  0.643999994       4.54546043E-15
  0.644999981       6.17750499E-16
  0.646000028      -2.84837804E-15
  0.647000015      -5.80144597E-15
  0.648000002      -8.22047932E-15
  0.648999989      -1.01148143E-14
  0.649999976      -1.15224746E-14
  0.651000023      -1.25071758E-14
  0.652000010      -1.31540735E-14
  0.652999997      -1.35644356E-14
  0.653999984      -1.38494596E-14
  0.654999971      -1.41235256E-14
  0.656000018      -1.44971485E-14
  0.657000005      -1.50699850E-14
  0.657999992      -1.59241889E-14
  0.658999979      -1.71184664E-14
  0.660000026      -1.86831074E-14
  0.661000013      -2.06162602E-14
  0.662000000      -2.28816904E-14
  0.662999988      -2.54081526E-14
  0.663999975      -2.80904958E-14
  0.665000021      -3.07925377E-14
  0.666000009      -3.33516309E-14
  0.666999996      -3.55848197E-14
  0.667999983      -3.72963955E-14
  0.669000030      -3.82865635E-14
  0.670000017      -3.83609262E-14
  0.671000004      -3.73404141E-14
  0.671999991      -3.50712128E-14
  0.672999978      -3.14343481E-14
  0.674000025      -2.63544154E-14
  0.675000012      -1.98070947E-14
  0.675999999      -1.18250628E-14
  0.676999986      -2.50195364E-15
  0.677999973       8.00590131E-15
  0.679000020       1.94801315E-14
  0.680000007       3.16435212E-14
  0.680999994       4.41657175E-14
  0.681999981       5.66714271E-14
  0.683000028       6.87508590E-14
  0.684000015       7.99721685E-14
  0.685000002       8.98955389E-14
  0.685999990       9.80884753E-14
  0.686999977       1.04141739E-13
  0.688000023       1.07685433E-13
  0.689000010       1.08404645E-13
  0.689999998       1.06054014E-13
  0.690999985       1.00470705E-13
  0.691999972       9.15851867E-14
  0.693000019       7.94293898E-14
  0.694000006       6.41417461E-14
  0.694999993       4.59689151E-14
  0.695999980       2.52638520E-14
  0.697000027       2.48025117E-15
  0.698000014      -2.18366923E-14
  0.699000001      -4.70630005E-14
  0.699999988      -7.25118004E-14
  0.700999975      -9.74520283E-14
  0.702000022      -1.21129357E-13
  0.703000009      -1.42788816E-13
  0.703999996      -1.61698305E-13
  0.704999983      -1.77172364E-13
  0.705999970      -1.88595423E-13
  0.707000017      -1.95443583E-13
  0.708000004      -1.97304439E-13
  0.708999991      -1.93894041E-13
  0.709999979      -1.85070438E-13
  0.711000025      -1.70843198E-13
  0.712000012      -1.51378665E-13
  0.713000000      -1.27000380E-13
  0.713999987      -9.81848608E-14
  0.714999974      -6.55524354E-14
  0.716000021      -2.98535034E-14
  0.717000008       8.04949132E-15
  0.717999995       4.72039976E-14
  0.718999982       8.65925170E-14
  0.720000029       1.25160312E-13
  0.721000016       1.61844876E-13
  0.722000003       1.95606267E-13
  0.722999990       2.25457389E-13
  0.723999977       2.50493392E-13
  0.725000024       2.69919124E-13
  0.726000011       2.83073939E-13
  0.726999998       2.89452951E-13
  0.727999985       2.88724150E-13
  0.728999972       2.80740817E-13
  0.730000019       2.65548624E-13
  0.731000006       2.43387450E-13
  0.731999993       2.14687629E-13
  0.732999980       1.80060719E-13
  0.734000027       1.40285014E-13
  0.735000014       9.62861857E-14
  0.736000001       4.91136842E-14
  0.736999989      -8.66265889E-17
  0.737999976      -5.01026392E-14
  0.739000022      -9.96882359E-14
  0.740000010      -1.47596616E-13
  0.740999997      -1.92613801E-13
  0.741999984      -2.33591304E-13
  0.742999971      -2.69477068E-13
  0.744000018      -2.99343964E-13
  0.745000005      -3.22414567E-13
  0.745999992      -3.38082156E-13
  0.746999979      -3.45926928E-13
  0.748000026      -3.45727082E-13
  0.749000013      -3.37464621E-13
  0.750000000      -3.21325486E-13
  0.750999987      -2.97694432E-13
  0.751999974      -2.67144244E-13
  0.753000021      -2.30420419E-13
  0.754000008      -1.88420921E-13
  0.754999995      -1.42172271E-13
  0.755999982      -9.28022782E-14
  0.757000029      -4.15103099E-14
  0.758000016       1.04640782E-14
  0.759000003       6.18733038E-14
  0.759999990       1.11493836E-13
  0.760999978       1.58157328E-13
  0.762000024       2.00779999E-13
  0.763000011       2.38389441E-13
  0.763999999       2.70148324E-13
  0.764999986       2.95374185E-13
  0.765999973       3.13555009E-13
  0.767000020       3.24360222E-13
  0.768000007       3.27646628E-13
  0.768999994       3.23459765E-13
  0.769999981       3.12029889E-13
  0.771000028       2.93763522E-13
  0.772000015       2.69230385E-13
  0.773000002       2.39146295E-13
  0.773999989       2.04352540E-13
  0.774999976       1.65792103E-13
  0.776000023       1.24483757E-13
  0.777000010       8.14943748E-14
  0.777999997       3.79104910E-14
  0.778999984      -5.19033584E-15
  0.779999971      -4.67674605E-14
  0.781000018      -8.58437331E-14
  0.782000005      -1.21530010E-13
  0.782999992      -1.53046968E-13
  0.783999979      -1.79743658E-13
  0.785000026      -2.01112307E-13
  0.786000013      -2.16799032E-13
  0.787000000      -2.26610234E-13
  0.787999988      -2.30514501E-13
  0.788999975      -2.28639888E-13
  0.790000021      -2.21266961E-13
  0.791000009      -2.08817528E-13
  0.791999996      -1.91839613E-13
  0.792999983      -1.70988969E-13
  0.794000030      -1.47007772E-13
  0.795000017      -1.20701138E-13
  0.796000004      -9.29120469E-14
  0.796999991      -6.44955077E-14
  0.797999978      -3.62927428E-14
  0.799000025      -9.10608191E-15
  0.800000012       1.63245848E-14
  0.800999999       3.93431151E-14
  0.801999986       5.93955562E-14
  0.802999973       7.60450730E-14
  0.804000020       8.89829524E-14
  0.805000007       9.80352884E-14
  0.805999994       1.03165184E-13
  0.806999981       1.04470326E-13
  0.808000028       1.02176053E-13
  0.809000015       9.66241247E-14
  0.810000002       8.82575737E-14
  0.810999990       7.76021025E-14
  0.811999977       6.52447592E-14
  0.813000023       5.18105320E-14
  0.814000010       3.79377417E-14
  0.814999998       2.42531012E-14
  0.815999985       1.13473726E-14
  0.816999972      -2.47493975E-16
  0.818000019      -1.00788467E-14
  0.819000006      -1.77906599E-14
  0.819999993      -2.31369913E-14
  0.820999980      -2.59909875E-14
  0.822000027      -2.63490740E-14
  0.823000014      -2.43299796E-14
  0.824000001      -2.01686625E-14
  0.824999988      -1.42052219E-14
  0.825999975      -6.86918860E-15
  0.827000022       1.34030481E-15
  0.828000009       9.87769504E-15
  0.828999996       1.81766579E-14
  0.829999983       2.56772193E-14
  0.830999970       3.18532771E-14
  0.832000017       3.62392747E-14
  0.833000004       3.84548757E-14
  0.833999991       3.82265867E-14
  0.834999979       3.54052183E-14
  0.836000025       2.99782206E-14
  0.837000012       2.20762570E-14
  0.838000000       1.19734248E-14
  0.838999987       8.08068373E-17
  0.839999974      -1.30665589E-14
  0.841000021      -2.68291689E-14
  0.842000008      -4.04883138E-14
  0.842999995      -5.32764784E-14
  0.843999982      -6.44115973E-14
  0.845000029      -7.31340918E-14
  0.846000016      -7.87450752E-14
  0.847000003      -8.06441502E-14
  0.847999990      -7.83652792E-14
  0.848999977      -7.16088701E-14
  0.850000024      -6.02686100E-14
  0.851000011      -4.44514929E-14
  0.851999998      -2.44899045E-14
  0.852999985      -9.44595473E-16
  0.853999972       2.54019828E-14
  0.855000019       5.35624198E-14
  0.856000006       8.23710132E-14