   0.00000000       0.00000000    
   1.00000005E-03   0.00000000    
   2.00000009E-03   0.00000000    
   3.00000003E-03   0.00000000    
   4.00000019E-03   0.00000000    
   4.99999989E-03   0.00000000    
   6.00000005E-03   0.00000000    
   7.00000022E-03   0.00000000    
   8.00000038E-03   0.00000000    
   8.99999961E-03   0.00000000    
   9.99999978E-03   0.00000000    
   1.09999999E-02   0.00000000    
   1.20000001E-02   0.00000000    
   1.30000003E-02   0.00000000    
   1.40000004E-02  -1.67760571E-37
   1.49999997E-02   1.22337593E-37
   1.60000008E-02   2.45758855E-36
   1.70000009E-02   1.07236180E-35
   1.79999992E-02   3.45226275E-35
   1.89999994E-02   9.19711888E-35
   1.99999996E-02   2.15766258E-34
   2.09999997E-02   4.59366295E-34
   2.19999999E-02   8.89960804E-34
   2.30000000E-02   1.55434461E-33
   2.40000002E-02   2.36546289E-33
   2.50000004E-02   2.80990721E-33
   2.60000005E-02   1.31668537E-33
   2.70000007E-02  -5.99952737E-33
   2.80000009E-02  -2.76713604E-32
   2.89999992E-02  -8.09604454E-32
   2.99999993E-02  -1.98639737E-31
   3.09999995E-02  -4.39735039E-31
   3.20000015E-02  -9.05773693E-31
   3.29999998E-02  -1.76426355E-30
   3.40000018E-02  -3.28103758E-30
   3.50000001E-02  -5.86253376E-30
   3.59999985E-02  -1.01077272E-29
   3.70000005E-02  -1.68669589E-29
   3.79999988E-02  -2.73008665E-29
   3.90000008E-02  -4.29265921E-29
   3.99999991E-02  -6.56300531E-29
   4.10000011E-02  -9.76121842E-29
   4.19999994E-02  -1.41223664E-28
   4.30000015E-02  -1.98627535E-28
   4.39999998E-02  -2.71213403E-28
   4.50000018E-02  -3.58673252E-28
   4.60000001E-02  -4.57640244E-28
   4.69999984E-02  -5.59793109E-28
   4.80000004E-02  -6.49346636E-28
   4.89999987E-02  -6.99889057E-28
   5.00000007E-02  -6.70600236E-28
   5.09999990E-02  -5.01996336E-28
   5.20000011E-02  -1.11508286E-28
   5.29999994E-02   6.10587055E-28
   5.40000014E-02   1.80409292E-27
   5.49999997E-02   3.63957118E-27
   5.60000017E-02   6.31531226E-27
   5.70000000E-02   1.00487783E-26
   5.79999983E-02   1.50603546E-26
   5.90000004E-02   2.15470099E-26
   5.99999987E-02   2.96433529E-26
   6.10000007E-02   3.93677583E-26
   6.19999990E-02   5.05516798E-26
   6.30000010E-02   6.27513089E-26
   6.40000030E-02   7.51421628E-26
   6.49999976E-02   8.63995099E-26
   6.59999996E-02   9.45703463E-26
   6.70000017E-02   9.69464446E-26
   6.80000037E-02   8.99523669E-26
   6.89999983E-02   6.90674162E-26
   7.00000003E-02   2.88057059E-26
   7.10000023E-02  -3.72160724E-26
   7.19999969E-02  -1.36088909E-25
   7.29999989E-02  -2.75262265E-25
   7.40000010E-02  -4.61996685E-25
   7.50000030E-02  -7.02581265E-25
   7.59999976E-02  -1.00128576E-24
   7.69999996E-02  -1.35902847E-24
   7.80000016E-02  -1.77175872E-24
   7.90000036E-02  -2.22857998E-24
   7.99999982E-02  -2.70966956E-24
   8.10000002E-02  -3.18409505E-24
   8.20000023E-02  -3.60767510E-24
   8.29999968E-02  -3.92108480E-24
   8.39999989E-02  -4.04846375E-24
   8.50000009E-02  -3.89684350E-24
   8.60000029E-02  -3.35675777E-24
   8.69999975E-02  -2.30444493E-24
   8.79999995E-02  -6.06066352E-25
   8.90000015E-02   1.87563947E-24
   9.00000036E-02   5.27188840E-24
   9.09999982E-02   9.69527407E-24
   9.20000002E-02   1.52239395E-23
   9.30000022E-02   2.18825408E-23
   9.39999968E-02   2.96203102E-23
   9.49999988E-02   3.82868749E-23
   9.60000008E-02   4.76068342E-23
   9.70000029E-02   5.71545755E-23
   9.79999974E-02   6.63312367E-23
   9.89999995E-02   7.43462781E-23
  0.100000001       8.02064417E-23
  0.101000004       8.27154296E-23
  0.101999998       8.04877495E-23
  0.103000000       7.19804274E-23
  0.104000002       5.55460187E-23
  0.104999997       2.95101253E-23
  0.105999999      -7.72434612E-24
  0.107000001      -5.75448156E-23
  0.108000003      -1.20968892E-22
  0.108999997      -1.98458724E-22
  0.109999999      -2.89714557E-22
  0.111000001      -3.93454714E-22
  0.112000003      -5.07192679E-22
  0.112999998      -6.27024816E-22
  0.114000000      -7.47445430E-22
  0.115000002      -8.61209119E-22
  0.115999997      -9.59263040E-22
  0.116999999      -1.03077246E-21
  0.118000001      -1.06326485E-21
  0.119000003      -1.04291632E-21
  0.119999997      -9.55002030E-22
  0.120999999      -7.84526941E-22
  0.122000001      -5.17048114E-22
  0.123000003      -1.39688965E-22
  0.123999998       3.57663779E-22
  0.125000000       9.81005914E-22
  0.126000002       1.73074295E-21
  0.127000004       2.60015582E-21
  0.128000006       3.57388028E-21
  0.128999993       4.62649427E-21
  0.129999995       5.72132032E-21
  0.130999997       6.80956729E-21
  0.131999999       7.82995031E-21
  0.133000001       8.70891776E-21
  0.134000003       9.36163193E-21
  0.135000005       9.69382411E-21
  0.136000007       9.60462754E-21
  0.136999995       8.99046129E-21
  0.137999997       7.74999975E-21
  0.138999999       5.79019643E-21
  0.140000001       3.03327615E-21
  0.141000003      -5.75464564E-22
  0.142000005      -5.05930683E-21
  0.143000007      -1.04015361E-20
  0.143999994      -1.65370497E-20
  0.144999996      -2.33446670E-20
  0.145999998      -3.06406989E-20
  0.147000000      -3.81743885E-20
  0.148000002      -4.56258996E-20
  0.149000004      -5.26074785E-20
  0.150000006      -5.86684183E-20
  0.150999993      -6.33043585E-20
  0.151999995      -6.59713439E-20
  0.152999997      -6.61048883E-20
  0.153999999      -6.31440599E-20
  0.155000001      -5.65603420E-20
  0.156000003      -4.58907913E-20
  0.157000005      -3.07745535E-20
  0.158000007      -1.09915671E-20
  0.158999994       1.34981328E-20
  0.159999996       4.25164243E-20
  0.160999998       7.56326066E-20
  0.162000000       1.12134892E-19
  0.163000003       1.51010416E-19
  0.164000005       1.90936446E-19
  0.165000007       2.30285351E-19
  0.165999994       2.67145579E-19
  0.166999996       2.99360567E-19
  0.167999998       3.24587094E-19
  0.169000000       3.40373190E-19
  0.170000002       3.44255691E-19
  0.171000004       3.33875841E-19
  0.172000006       3.07110319E-19
  0.172999993       2.62213798E-19
  0.173999995       1.97968012E-19
  0.174999997       1.13830896E-19
  0.175999999       1.00783815E-20
  0.177000001      -1.12069583E-19
  0.178000003      -2.50347712E-19
  0.179000005      -4.01378019E-19
  0.180000007      -5.60645493E-19
  0.180999994      -7.22525411E-19
  0.181999996      -8.80368843E-19
  0.182999998      -1.02665232E-18
  0.184000000      -1.15319472E-18
  0.185000002      -1.25144020E-18
  0.186000004      -1.31280512E-18
  0.187000006      -1.32908134E-18
  0.187999994      -1.29288392E-18
  0.188999996      -1.19812810E-18
  0.189999998      -1.04051649E-18
  0.191000000      -8.18013280E-19
  0.192000002      -5.31278152E-19
  0.193000004      -1.84033353E-19
  0.194000006       2.16666481E-19
  0.194999993       6.60290617E-19
  0.195999995       1.13284122E-18
  0.196999997       1.61703884E-18
  0.197999999       2.09270181E-18
  0.199000001       2.53733041E-18
  0.200000003       2.92689712E-18
  0.201000005       3.23683425E-18
  0.202000007       3.44319803E-18
  0.202999994       3.52397511E-18
  0.203999996       3.46048672E-18
  0.204999998       3.23883107E-18
  0.206000000       2.85129302E-18
  0.207000002       2.29764428E-18
  0.208000004       1.58624559E-18
  0.209000006       7.34861983E-19
  0.209999993      -2.28896540E-19
  0.210999995      -1.26759411E-18
  0.211999997      -2.33451876E-18
  0.213000000      -3.37481749E-18
  0.214000002      -4.32725393E-18
  0.215000004      -5.12659247E-18
  0.216000006      -5.70658339E-18
  0.216999993      -6.00348912E-18
  0.217999995      -5.96005055E-18
  0.218999997      -5.52975451E-18
  0.219999999      -4.68122560E-18
  0.221000001      -3.40252742E-18
  0.222000003      -1.70513047E-18
  0.223000005       3.72719622E-19
  0.224000007       2.76351220E-18
  0.224999994       5.36913878E-18
  0.225999996       8.06098178E-18
  0.226999998       1.06816595E-17
  0.228000000       1.30486178E-17
  0.229000002       1.49596855E-17
  0.230000004       1.62006499E-17
  0.231000006       1.65547858E-17
  0.231999993       1.58141912E-17
  0.232999995       1.37926469E-17
  0.233999997       1.03395964E-17
  0.234999999       5.35473632E-18
  0.236000001      -1.19742603E-18
  0.237000003      -9.27379234E-18
  0.238000005      -1.87404799E-17
  0.238999993      -2.93631019E-17
  0.239999995      -4.08003959E-17
  0.240999997      -5.26021225E-17
  0.241999999      -6.42119795E-17
  0.243000001      -7.49762728E-17
  0.244000003      -8.41588842E-17
  0.245000005      -9.09627954E-17
  0.246000007      -9.45582584E-17
  0.246999994      -9.41173314E-17
  0.247999996      -8.88541664E-17
  0.248999998      -7.80701003E-17
  0.250000000      -6.12021803E-17
  0.250999987      -3.78733908E-17
  0.252000004      -7.94251710E-18
  0.252999991       2.84487199E-17
  0.254000008       7.08338648E-17
  0.254999995       1.18388048E-16
  0.256000012       1.69905174E-16
  0.256999999       2.23788884E-16
  0.257999986       2.78059555E-16
  0.259000003       3.30379775E-16
  0.259999990       3.78099785E-16
  0.261000007       4.18323976E-16
  0.261999995       4.47998690E-16
  0.263000011       4.64020636E-16
  0.263999999       4.63364027E-16
  0.264999986       4.43224098E-16
  0.266000003       4.01172512E-16
  0.266999990       3.35320147E-16
  0.268000007       2.44481078E-16
  0.268999994       1.28330799E-16
  0.270000011      -1.24488498E-17
  0.270999998      -1.76046415E-16
  0.272000015      -3.59427314E-16
  0.273000002      -5.58278198E-16
  0.273999989      -7.66997333E-16
  0.275000006      -9.78737359E-16
  0.275999993      -1.18550625E-15
  0.277000010      -1.37832970E-15
  0.277999997      -1.54747753E-15
  0.279000014      -1.68275208E-15
  0.280000001      -1.77383618E-15
  0.280999988      -1.81069365E-15
  0.282000005      -1.78401232E-15
  0.282999992      -1.68567815E-15
  0.284000009      -1.50926427E-15
  0.284999996      -1.25051646E-15
  0.286000013      -9.07815290E-16
  0.287000000      -4.82593581E-16
  0.287999988       2.03146559E-17
  0.289000005       5.92416326E-16
  0.289999992       1.22141367E-15
  0.291000009       1.89119185E-15
  0.291999996       2.58195675E-15
  0.293000013       3.27053566E-15
  0.294000000       3.93084909E-15
  0.294999987       4.53455531E-15
  0.296000004       5.05186501E-15
  0.296999991       5.45251117E-15
  0.298000008       5.70685653E-15
  0.298999995       5.78710994E-15
  0.300000012       5.66861850E-15
  0.300999999       5.33118937E-15
  0.301999986       4.76039547E-15
  0.303000003       3.94881424E-15
  0.303999990       2.89713686E-15
  0.305000007       1.61509490E-15
  0.305999994       1.22144374E-16
  0.307000011      -1.55214510E-15
  0.307999998      -3.36804567E-15
  0.308999985      -5.27601153E-15
  0.310000002      -7.21743307E-15
  0.310999990      -9.12582117E-15
  0.312000006      -1.09284242E-14
  0.312999994      -1.25482612E-14
  0.314000010      -1.39065412E-14
  0.314999998      -1.49254117E-14
  0.316000015      -1.55309674E-14
  0.317000002      -1.56564367E-14
  0.317999989      -1.52454326E-14
  0.319000006      -1.42551596E-14
  0.319999993      -1.26594461E-14
  0.321000010      -1.04514633E-14
  0.321999997      -7.64600124E-15
  0.323000014      -4.28116455E-15
  0.324000001      -4.19367494E-16
  0.324999988       3.85248203E-15
  0.326000005       8.42369777E-15
  0.326999992       1.31614978E-14
  0.328000009       1.79136762E-14
  0.328999996       2.25122757E-14
  0.330000013       2.67782012E-14
  0.331000000       3.05267184E-14
  0.331999987       3.35736857E-14
  0.333000004       3.57423848E-14
  0.333999991       3.68707242E-14
  0.335000008       3.68186045E-14
  0.335999995       3.54751595E-14
  0.337000012       3.27656027E-14
  0.338000000       2.86573947E-14
  0.338999987       2.31654126E-14
  0.340000004       1.63558538E-14
  0.340999991       8.34860067E-15
  0.342000008      -6.82182548E-16
  0.342999995      -1.05093953E-14
  0.344000012      -2.08564347E-14
  0.344999999      -3.14027640E-14
  0.345999986      -4.17915892E-14
  0.347000003      -5.16395974E-14
  0.347999990      -6.05485172E-14
  0.349000007      -6.81182473E-14
  0.349999994      -7.39612703E-14
  0.351000011      -7.77178140E-14
  0.351999998      -7.90713523E-14
  0.352999985      -7.77638858E-14
  0.354000002      -7.36103954E-14
  0.354999989      -6.65118730E-14
  0.356000006      -5.64663164E-14
  0.356999993      -4.35771346E-14
  0.358000010      -2.80584238E-14
  0.358999997      -1.02366439E-14
  0.360000014       9.45165441E-15
  0.361000001       3.04663081E-14
  0.361999989       5.21743158E-14
  0.363000005       7.38648915E-14
  0.363999993       9.47685872E-14
  0.365000010       1.14080091E-13
  0.365999997       1.30984199E-13
  0.367000014       1.44684300E-13
  0.368000001       1.54432402E-13
  0.368999988       1.59559879E-13
  0.370000005       1.59507769E-13
  0.370999992       1.53855593E-13
  0.372000009       1.42347410E-13
  0.372999996       1.24914022E-13
  0.374000013       1.01690188E-13
  0.375000000       7.30258681E-14
  0.375999987       3.94906479E-14
  0.377000004       1.87058587E-15
  0.377999991      -3.88429049E-14
  0.379000008      -8.14723451E-14
  0.379999995      -1.24681610E-13
  0.381000012      -1.67011045E-13
  0.381999999      -2.06919646E-13
  0.382999986      -2.42833179E-13
  0.384000003      -2.73197182E-13
  0.384999990      -2.96533062E-13
  0.386000007      -3.11495567E-13
  0.386999995      -3.16929832E-13
  0.388000011      -3.11925697E-13
  0.388999999      -2.95867362E-13
  0.389999986      -2.68476159E-13
  0.391000003      -2.29844437E-13
  0.391999990      -1.80458919E-13
  0.393000007      -1.21211634E-13
  0.393999994      -5.33975770E-14
  0.395000011       2.13020180E-14
  0.395999998       1.00851009E-13
  0.397000015       1.82904256E-13
  0.398000002       2.64867338E-13
  0.398999989       3.43968994E-13
  0.400000006       4.17344653E-13
  0.400999993       4.82128443E-13
  0.402000010       5.35551475E-13
  0.402999997       5.75043160E-13
  0.404000014       5.98331985E-13
  0.405000001       6.03542715E-13
  0.405999988       5.89285782E-13
  0.407000005       5.54735619E-13
  0.407999992       4.99694524E-13
  0.409000009       4.24638894E-13
  0.409999996       3.30745007E-13
  0.411000013       2.19892409E-13
  0.412000000       9.46434906E-14
  0.412999988      -4.18016384E-14
  0.414000005      -1.85674745E-13
  0.414999992      -3.32732539E-13
  0.416000009      -4.78371303E-13
  0.416999996      -6.17760617E-13
  0.418000013      -7.45992135E-13
  0.419000000      -8.58239640E-13
  0.419999987      -9.49925360E-13
  0.421000004      -1.01688666E-12
  0.421999991      -1.05553847E-12
  0.423000008      -1.06302445E-12
  0.423999995      -1.03735206E-12
  0.425000012      -9.77505511E-13
  0.425999999      -8.83531583E-13
  0.426999986      -7.56594440E-13
  0.428000003      -5.98995463E-13
  0.428999990      -4.14155879E-13
  0.430000007      -2.06560965E-13
  0.430999994       1.83342924E-14
  0.432000011       2.54236763E-13
  0.432999998       4.94181248E-13
  0.433999985       7.30727002E-13
  0.435000002       9.56179797E-13
  0.435999990       1.16283285E-12
  0.437000006       1.34321948E-12
  0.437999994       1.49036946E-12
  0.439000010       1.59806088E-12
  0.439999998       1.66105834E-12
  0.441000015       1.67532915E-12
  0.442000002       1.63822905E-12
  0.442999989       1.54865021E-12
  0.444000006       1.40712485E-12
  0.444999993       1.21587896E-12
  0.446000010       9.78832033E-13
  0.446999997       7.01541364E-13
  0.448000014       3.91089830E-13
  0.449000001       5.59186622E-14
  0.449999988      -2.94390841E-13
  0.451000005      -6.49382024E-13
  0.451999992      -9.98026423E-13
  0.453000009      -1.32905839E-12
  0.453999996      -1.63132973E-12
  0.455000013      -1.89417427E-12
  0.456000000      -2.10776990E-12
  0.456999987      -2.26348757E-12
  0.458000004      -2.35421296E-12
  0.458999991      -2.37463066E-12
  0.460000008      -2.32146095E-12
  0.460999995      -2.19363828E-12
  0.462000012      -1.99242489E-12
  0.463000000      -1.72145284E-12
  0.463999987      -1.38669100E-12
  0.465000004      -9.96337019E-13
  0.465999991      -5.60633462E-13
  0.467000008      -9.16129965E-14
  0.467999995       3.97221129E-13
  0.469000012       8.91271703E-13
  0.469999999       1.37527012E-12
  0.470999986       1.83373260E-12
  0.472000003       2.25143732E-12
  0.472999990       2.61390540E-12
  0.474000007       2.90787533E-12
  0.474999994       3.12174960E-12
  0.476000011       3.24600329E-12
  0.476999998       3.27353921E-12
  0.477999985       3.19997783E-12
  0.479000002       3.02387108E-12
  0.479999989       2.74683163E-12
  0.481000006       2.37357204E-12
  0.481999993       1.91185175E-12
  0.483000010       1.37233129E-12
  0.483999997       7.68334615E-13
  0.485000014       1.15528897E-13
  0.486000001      -5.68473762E-13
  0.486999989      -1.26457904E-12
  0.488000005      -1.95272639E-12
  0.488999993      -2.61244303E-12
  0.490000010      -3.22342066E-12
  0.490999997      -3.76609811E-12
  0.492000014      -4.22223324E-12
  0.493000001      -4.57544679E-12
  0.493999988      -4.81172437E-12
  0.495000005      -4.91985966E-12
  0.495999992      -4.89182826E-12
  0.497000009      -4.72308043E-12
  0.497999996      -4.41274448E-12
  0.499000013      -3.96373386E-12
  0.500000000      -3.38275675E-12
  0.500999987      -2.68022757E-12
  0.501999974      -1.87008070E-12
  0.503000021      -9.69492065E-13
  0.504000008       1.48221279E-15
  0.504999995       1.02034440E-12
  0.505999982       2.06265777E-12
  0.507000029       3.10260151E-12
  0.508000016       4.11356539E-12
  0.509000003       5.06876962E-12
  0.509999990       5.94189455E-12
  0.510999978       6.70770991E-12
  0.512000024       7.34268722E-12
  0.513000011       7.82558133E-12
  0.513999999       8.13797380E-12
  0.514999986       8.26476387E-12
  0.515999973       8.19459778E-12
  0.517000020       7.92022958E-12
  0.518000007       7.43880825E-12
  0.518999994       6.75207893E-12
  0.519999981       5.86650260E-12
  0.521000028       4.79328643E-12
  0.522000015       3.54832093E-12
  0.523000002       2.15202812E-12
  0.523999989       6.29118068E-13
  0.524999976      -9.91747483E-13
  0.526000023      -2.67837792E-12
  0.527000010      -4.39556464E-12
  0.527999997      -6.10567109E-12
  0.528999984      -7.76930256E-12
  0.529999971      -9.34604564E-12
  0.531000018      -1.07952692E-11
  0.532000005      -1.20769774E-11
  0.532999992      -1.31527055E-11
  0.533999979      -1.39864422E-11
  0.535000026      -1.45455644E-11
  0.536000013      -1.48017657E-11
  0.537000000      -1.47319570E-11
  0.537999988      -1.43191240E-11
  0.538999975      -1.35531144E-11
  0.540000021      -1.24313207E-11
  0.541000009      -1.09592517E-11
  0.541999996      -9.15095777E-12
  0.542999983      -7.02928427E-12
  0.544000030      -4.62593332E-12
  0.545000017      -1.98131225E-12
  0.546000004       8.55841656E-13
  0.546999991       3.82908028E-12
  0.547999978       6.87510812E-12
  0.549000025       9.92489077E-12
  0.550000012       1.29049991E-11
  0.550999999       1.57391773E-11
  0.551999986       1.83501062E-11
  0.552999973       2.06613338E-11
  0.554000020       2.25993287E-11
  0.555000007       2.40956075E-11
  0.555999994       2.50888893E-11
  0.556999981       2.55272053E-11
  0.558000028       2.53699076E-11
  0.559000015       2.45895058E-11
  0.560000002       2.31732567E-11
  0.560999990       2.11244564E-11
  0.561999977       1.84633628E-11
  0.563000023       1.52276906E-11
  0.564000010       1.14726388E-11
  0.564999998       7.27041474E-12
  0.565999985       2.70922455E-12
  0.566999972      -2.10826560E-12
  0.568000019      -7.06699022E-12
  0.569000006      -1.20420488E-11
  0.569999993      -1.69017161E-11
  0.570999980      -2.15108400E-11
  0.572000027      -2.57345603E-11
  0.573000014      -2.94422264E-11
  0.574000001      -3.25114276E-11
  0.574999988      -3.48320123E-11
  0.575999975      -3.63099620E-11
  0.577000022      -3.68710062E-11
  0.578000009      -3.64638250E-11
  0.578999996      -3.50627374E-11
  0.579999983      -3.26697558E-11
  0.580999970      -2.93158900E-11
  0.582000017      -2.50616385E-11
  0.583000004      -1.99965912E-11
  0.583999991      -1.42381124E-11
  0.584999979      -7.92909835E-12
  0.586000025      -1.23482908E-12
  0.587000012       5.66103935E-12
  0.588000000       1.25612533E-11
  0.588999987       1.92603971E-11
  0.589999974       2.55508496E-11
  0.591000021       3.12290957E-11
  0.592000008       3.61022150E-11
  0.592999995       3.99943412E-11
  0.593999982       4.27528776E-11
  0.595000029       4.42542773E-11
  0.596000016       4.44091708E-11
  0.597000003       4.31666404E-11
  0.597999990       4.05174748E-11
  0.598999977       3.64962435E-11
  0.600000024       3.11820847E-11
  0.601000011       2.46980977E-11
  0.601999998       1.72093277E-11
  0.602999985       8.91932014E-12
  0.603999972       6.52997621E-14
  0.605000019      -9.08791271E-12
  0.606000006      -1.82551370E-11
  0.606999993      -2.71390219E-11
  0.607999980      -3.54389469E-11
  0.609000027      -4.28604201E-11
  0.610000014      -4.91246627E-11
  0.611000001      -5.39780928E-11
  0.611999989      -5.72013860E-11
  0.612999976      -5.86178328E-11
  0.614000022      -5.81006597E-11
  0.615000010      -5.55791003E-11
  0.615999997      -5.10428991E-11
  0.616999984      -4.45450968E-11
  0.617999971      -3.62029400E-11
  0.619000018      -2.61967843E-11
  0.620000005      -1.47669862E-11
  0.620999992      -2.20879695E-12
  0.621999979       1.11346635E-11
  0.623000026       2.48811804E-11
  0.624000013       3.86197636E-11
  0.625000000       5.19222408E-11
  0.625999987       6.43557915E-11
  0.626999974       7.54960747E-11
  0.628000021       8.49405338E-11
  0.629000008       9.23215254E-11
  0.629999995       9.73187919E-11
  0.630999982       9.96708896E-11
  0.632000029       9.91852156E-11
  0.633000016       9.57462304E-11
  0.634000003       8.93216126E-11
  0.634999990       7.99660685E-11
  0.635999978       6.78226156E-11
  0.637000024       5.31212296E-11
  0.638000011       3.61748340E-11
  0.638999999       1.73726918E-11
  0.639999986      -2.82871383E-12
  0.640999973      -2.39170385E-11
  0.642000020      -4.53374109E-11
  0.643000007      -6.65074038E-11
  0.643999994      -8.68331795E-11
  0.644999981      -1.05726393E-10
  0.646000028      -1.22621330E-10
  0.647000015      -1.36991793E-10
  0.648000002      -1.48367166E-10
  0.648999989      -1.56347282E-10
  0.649999976      -1.60615465E-10
  0.651000023      -1.60949420E-10
  0.652000010      -1.57229590E-10
  0.652999997      -1.49444693E-10
  0.653999984      -1.37694203E-10
  0.654999971      -1.22187635E-10
  0.656000018      -1.03240680E-10
  0.657000005      -8.12682005E-11
  0.657999992      -5.67742346E-11
  0.658999979      -3.03393213E-11
  0.660000026      -2.60543150E-12
  0.661000013       2.57410482E-11
  0.662000000       5.39877865E-11
  0.662999988       8.14159781E-11
  0.663999975       1.07320153E-10
  0.665000021       1.31027814E-10
  0.666000009       1.51918367E-10
  0.666999996       1.69440642E-10
  0.667999983       1.83128609E-10
  0.669000030       1.92614785E-10
  0.670000017       1.97640945E-10
  0.671000004       1.98065758E-10
  0.671999991       1.93869157E-10
  0.672999978       1.85153282E-10
  0.674000025       1.72139983E-10
  0.675000012       1.55164909E-10
  0.675999999       1.34668360E-10
  0.676999986       1.11183229E-10
  0.677999973       8.53202300E-11
  0.679000020       5.77509290E-11
  0.680000007       2.91891233E-11
  0.680999994       3.70987095E-13
  0.681999981      -2.79653870E-11
  0.683000028      -5.51004589E-11
  0.684000015      -8.03531408E-11
  0.685000002      -1.03099577E-10
  0.685999990      -1.22790250E-10
  0.686999977      -1.38964909E-10
  0.688000023      -1.51264931E-10
  0.689000010      -1.59442778E-10
  0.689999998      -1.63368249E-10
  0.690999985      -1.63031408E-10
  0.691999972      -1.58542054E-10
  0.693000019      -1.50125815E-10
  0.694000006      -1.38117004E-10
  0.694999993      -1.22948374E-10
  0.695999980      -1.05138134E-10
  0.697000027      -8.52746138E-11
  0.698000014      -6.39989589E-11
  0.699000001      -4.19864143E-11
  0.699999988      -1.99266506E-11
  0.700999975       1.49622675E-12
  0.702000022       2.16234877E-11
  0.703000009       3.98408459E-11
  0.703999996       5.55962568E-11
  0.704999983       6.84159326E-11
  0.705999970       7.79181858E-11
  0.707000017       8.38246764E-11
  0.708000004       8.59688015E-11
  0.708999991       8.43009482E-11
  0.709999979       7.88905261E-11
  0.711000025       6.99246772E-11
  0.712000012       5.77037203E-11
  0.713000000       4.26334315E-11
  0.713999987       2.52143584E-11
  0.714999974       6.02845291E-12
  0.716000021      -1.42766502E-11
  0.717000008      -3.50052834E-11
  0.717999995      -5.54328944E-11
  0.718999982      -7.48262285E-11
  0.720000029      -9.24639601E-11
  0.721000016      -1.07657314E-10
  0.722000003      -1.19770124E-10
  0.722999990      -1.28237795E-10
  0.723999977      -1.32584679E-10
  0.725000024      -1.32439476E-10
  0.726000011      -1.27548166E-10
  0.726999998      -1.17784088E-10
  0.727999985      -1.03154998E-10
  0.728999972      -8.38067601E-11
  0.730000019      -6.00236319E-11
  0.731000006      -3.22249449E-11
  0.731999993      -9.58328902E-13
  0.732999980       3.31105213E-11
  0.734000027       6.92113103E-11
  0.735000014       1.06485584E-10
  0.736000001       1.44005849E-10
  0.736999989       1.80796933E-10
  0.737999976       2.15859136E-10
  0.739000022       2.48192633E-10
  0.740000010       2.76822759E-10
  0.740999997       3.00825198E-10
  0.741999984       3.19350907E-10
  0.742999971       3.31649930E-10
  0.744000018       3.37093436E-10
  0.745000005       3.35193651E-10
  0.745999992       3.25620975E-10
  0.746999979       3.08217729E-10
  0.748000026       2.83008228E-10
  0.749000013       2.50204829E-10
  0.750000000       2.10209558E-10
  0.750999987       1.63611222E-10
  0.751999974       1.11177928E-10
  0.753000021       5.38450187E-11
  0.754000008      -7.30141642E-12
  0.754999995      -7.10452669E-11
  0.755999982      -1.36064882E-10
  0.757000029      -2.00960915E-10
  0.758000016      -2.64287037E-10
  0.759000003      -3.24582750E-10
  0.759999990      -3.80407483E-10
  0.760999978      -4.30375485E-10
  0.762000024      -4.73190431E-10
  0.763000011      -5.07679010E-10
  0.763999999      -5.32822453E-10
  0.764999986      -5.47785373E-10
  0.765999973      -5.51941159E-10
  0.767000020      -5.44892964E-10
  0.768000007      -5.26489741E-10
  0.768999994      -4.96836738E-10
  0.769999981      -4.56300137E-10
  0.771000028      -4.05505407E-10
  0.772000015      -3.45329348E-10
  0.773000002      -2.76885764E-10
  0.773999989      -2.01504868E-10
  0.774999976      -1.20706861E-10
  0.776000023      -3.61702508E-11
  0.777000010       5.03047118E-11
  0.777999997       1.36836417E-10
  0.778999984       2.21505314E-10
  0.779999971       3.02399356E-10
  0.781000018       3.77660403E-10
  0.782000005       4.45530279E-10
  0.782999992       5.04395525E-10
  0.783999979       5.52829560E-10
  0.785000026       5.89631122E-10
  0.786000013       6.13857964E-10
  0.787000000       6.24854779E-10
  0.787999988       6.22274510E-10
  0.788999975       6.06092398E-10
  0.790000021       5.76612313E-10
  0.791000009       5.34464861E-10
  0.791999996       4.80597007E-10
  0.792999983       4.16253726E-10
  0.794000030       3.42951723E-10
  0.795000017       2.62445593E-10
  0.796000004       1.76687276E-10
  0.796999991       8.77797349E-11
  0.797999978      -2.07413600E-12
  0.799000025      -9.06261871E-11
  0.800000012      -1.75639864E-10
  0.800999999      -2.54947952E-10
  0.801999986      -3.26509486E-10
  0.802999973      -3.88464788E-10
  0.804000020      -4.39186520E-10
  0.805000007      -4.77325957E-10
  0.805999994      -5.01852948E-10
  0.806999981      -5.12088205E-10
  0.808000028      -5.07727249E-10
  0.809000015      -4.88855012E-10
  0.810000002      -4.55950527E-10
  0.810999990      -4.09881462E-10
  0.811999977      -3.51888241E-10
  0.813000023      -2.83558066E-10
  0.814000010      -2.06789252E-10
  0.814999998      -1.23746638E-10
  0.815999985      -3.68088823E-11
  0.816999972       5.14910926E-11
  0.818000019       1.38531117E-10
  0.819000006       2.21668697E-10
  0.819999993       2.98312181E-10
  0.820999980       3.65992292E-10
  0.822000027       4.22432311E-10
  0.823000014       4.65614880E-10
  0.824000001       4.93843744E-10
  0.824999988       5.05798514E-10
  0.825999975       5.00581188E-10
  0.827000022       4.77752393E-10
  0.828000009       4.37356873E-10
  0.828999996       3.79936471E-10
  0.829999983       3.06530690E-10
  0.830999970       2.18663698E-10
  0.832000017       1.18318397E-10
  0.833000004       7.89738067E-12
  0.833999991      -1.09828376E-10
  0.834999979      -2.31782163E-10
  0.836000025      -3.54654223E-10
  0.837000012      -4.74982942E-10
  0.838000000      -5.89242655E-10
  0.838999987      -6.93935853E-10
  0.839999974      -7.85687848E-10
  0.841000021      -8.61341054E-10
  0.842000008      -9.18046861E-10
  0.842999995      -9.53352397E-10
  0.843999982      -9.65279190E-10
  0.845000029      -9.52392942E-10
  0.846000016      -9.13860820E-10
  0.847000003      -8.49494530E-10
  0.847999990      -7.59778351E-10
  0.848999977      -6.45880349E-10
  0.850000024      -5.09645937E-10
  0.851000011      -3.53573615E-10
  0.851999998      -1.80772508E-10
  0.852999985       5.09733228E-12
  0.853999972       1.99900957E-10
  0.855000019       3.99119682E-10
  0.856000006       5.97955407E-10