   0.00000000       0.00000000    
   1.00000005E-03   0.00000000    
   2.00000009E-03   0.00000000    
   3.00000003E-03   0.00000000    
   4.00000019E-03   0.00000000    
   4.99999989E-03   0.00000000    
   6.00000005E-03   0.00000000    
   7.00000022E-03   0.00000000    
   8.00000038E-03   0.00000000    
   8.99999961E-03   0.00000000    
   9.99999978E-03   0.00000000    
   1.09999999E-02   0.00000000    
   1.20000001E-02   0.00000000    
   1.30000003E-02   0.00000000    
   1.40000004E-02   0.00000000    
   1.49999997E-02  -2.85591549E-38
   1.60000008E-02  -1.49236986E-37
   1.70000009E-02  -5.86206599E-37
   1.79999992E-02  -1.99167461E-36
   1.89999994E-02  -6.15087822E-36
   1.99999996E-02  -1.76357759E-35
   2.09999997E-02  -4.74143567E-35
   2.19999999E-02  -1.20349947E-34
   2.30000000E-02  -2.90007727E-34
   2.40000002E-02  -6.66564255E-34
   2.50000004E-02  -1.46719401E-33
   2.60000005E-02  -3.10340684E-33
   2.70000007E-02  -6.32666929E-33
   2.80000009E-02  -1.24622252E-32
   2.89999992E-02  -2.37708188E-32
   2.99999993E-02  -4.39876716E-32
   3.09999995E-02  -7.90949183E-32
   3.20000015E-02  -1.38383403E-31
   3.29999998E-02  -2.35845356E-31
   3.40000018E-02  -3.91901494E-31
   3.50000001E-02  -6.35391842E-31
   3.59999985E-02  -1.00563147E-30
   3.70000005E-02  -1.55413396E-30
   3.79999988E-02  -2.34531341E-30
   3.90000008E-02  -3.45507243E-30
   3.99999991E-02  -4.96565376E-30
   4.10000011E-02  -6.95447209E-30
   4.19999994E-02  -9.47386757E-30
   4.30000015E-02  -1.25178570E-29
   4.39999998E-02  -1.59711096E-29
   4.50000018E-02  -1.95346382E-29
   4.60000001E-02  -2.26222545E-29
   4.69999984E-02  -2.42219635E-29
   4.80000004E-02  -2.27174616E-29
   4.89999987E-02  -1.56671422E-29
   5.00000007E-02   4.58057611E-31
   5.09999990E-02   3.05705057E-29
   5.20000011E-02   8.12793353E-29
   5.29999994E-02   1.61193656E-28
   5.40000014E-02   2.81172940E-28
   5.49999997E-02   4.54463807E-28
   5.60000017E-02   6.96642035E-28
   5.70000000E-02   1.02525581E-27
   5.79999983E-02   1.45904466E-27
   5.90000004E-02   2.01658597E-27
   5.99999987E-02   2.71420980E-27
   6.10000007E-02   3.56301277E-27
   6.19999990E-02   4.56481874E-27
   6.30000010E-02   5.70695220E-27
   6.40000030E-02   6.95575869E-27
   6.49999976E-02   8.24889277E-27
   6.59999996E-02   9.48651384E-27
   6.70000017E-02   1.05217166E-26
   6.80000037E-02   1.11507230E-26
   6.89999983E-02   1.11036409E-26
   7.00000003E-02   1.00368683E-26
   7.10000023E-02   7.52857340E-27
   7.19999969E-02   3.07899961E-27
   7.29999989E-02  -3.88234967E-27
   7.40000010E-02  -1.39803178E-26
   7.50000030E-02  -2.78660123E-26
   7.59999976E-02  -4.61745371E-26
   7.69999996E-02  -6.94662531E-26
   7.80000016E-02  -9.81497102E-26
   7.90000036E-02  -1.32385244E-25
   7.99999982E-02  -1.71969311E-25
   8.10000002E-02  -2.16201432E-25
   8.20000023E-02  -2.63737451E-25
   8.29999968E-02  -3.12435313E-25
   8.39999989E-02  -3.59202932E-25
   8.50000009E-02  -3.99860034E-25
   8.60000029E-02  -4.29030237E-25
   8.69999975E-02  -4.40082474E-25
   8.79999995E-02  -4.25143371E-25
   8.90000015E-02  -3.75205986E-25
   9.00000036E-02  -2.80360254E-25
   9.09999982E-02  -1.30170998E-25
   9.20000002E-02   8.57726244E-26
   9.30000022E-02   3.77117298E-25
   9.39999968E-02   7.51803178E-25
   9.49999988E-02   1.21491817E-24
   9.60000008E-02   1.76736101E-24
   9.70000029E-02   2.40434529E-24
   9.79999974E-02   3.11379236E-24
   9.89999995E-02   3.87469307E-24
  0.100000001       4.65553600E-24
  0.101000004       5.41293161E-24
  0.101999998       6.09058837E-24
  0.103000000       6.61881752E-24
  0.104000002       6.91476105E-24
  0.104999997       6.88355924E-24
  0.105999999       6.42065803E-24
  0.107000001       5.41545123E-24
  0.108000003       3.75642784E-24
  0.108999997       1.33793531E-24
  0.109999999      -1.93139498E-24
  0.111000001      -6.11861344E-24
  0.112000003      -1.12549673E-23
  0.112999998      -1.73232813E-23
  0.114000000      -2.42446554E-23
  0.115000002      -3.18651212E-23
  0.115999997      -3.99430632E-23
  0.116999999      -4.81383782E-23
  0.118000001      -5.60045426E-23
  0.119000003      -6.29848509E-23
  0.119999997      -6.84141576E-23
  0.120999999      -7.15275834E-23
  0.122000001      -7.14774749E-23
  0.123000003      -6.73598230E-23
  0.123999998      -5.82511175E-23
  0.125000000      -4.32562127E-23
  0.126000002      -2.15672568E-23
  0.127000004       7.46680197E-24
  0.128000006       4.42614487E-23
  0.128999993       8.89107203E-23
  0.129999995       1.41097252E-22
  0.130999997       2.00002417E-22
  0.131999999       2.64221450E-22
  0.133000001       3.31689858E-22
  0.134000003       3.99627569E-22
  0.135000005       4.64508615E-22
  0.136000007       5.22064058E-22
  0.136999995       5.67325993E-22
  0.137999997       5.94719990E-22
  0.138999999       5.98212788E-22
  0.140000001       5.71519957E-22
  0.141000003       5.08376248E-22
  0.142000005       4.02869346E-22
  0.143000007       2.49833738E-22
  0.143999994       4.52971189E-23
  0.144999996      -2.13031521E-22
  0.145999998      -5.25248632E-22
  0.147000000      -8.88738420E-22
  0.148000002      -1.29767735E-21
  0.149000004      -1.74259026E-21
  0.150000006      -2.20999274E-21
  0.150999993      -2.68215757E-21
  0.151999995      -3.13704249E-21
  0.152999997      -3.54841904E-21
  0.153999999      -3.88623871E-21
  0.155000001      -4.11726565E-21
  0.156000003      -4.20600743E-21
  0.157000005      -4.11595097E-21
  0.158000007      -3.81111270E-21
  0.158999994      -3.25788962E-21
  0.159999996      -2.42717895E-21
  0.160999998      -1.29672264E-21
  0.162000000       1.46394459E-22
  0.163000003       1.90318426E-21
  0.164000005       3.96024108E-21
  0.165000007       6.28740468E-21
  0.165999994       8.83574701E-21
  0.166999996       1.15360442E-20
  0.167999998       1.42978912E-20
  0.169000000       1.70096348E-20
  0.170000002       1.95392905E-20
  0.171000004       2.17365552E-20
  0.172000006       2.34360737E-20
  0.172999993       2.44620006E-20
  0.173999995       2.46339217E-20
  0.174999997       2.37740836E-20
  0.175999999       2.17158579E-20
  0.177000001       1.83132747E-20
  0.178000003       1.34513712E-20
  0.179000005       7.05705747E-21
  0.180000007      -8.89929007E-22
  0.180999994      -1.03464365E-20
  0.181999996      -2.11962269E-20
  0.182999998      -3.32418168E-20
  0.184000000      -4.61984508E-20
  0.185000002      -5.96908393E-20
  0.186000004      -7.32532604E-20
  0.187000006      -8.63336806E-20
  0.187999994      -9.83022215E-20
  0.188999996      -1.08464536E-19
  0.189999998      -1.16080078E-19
  0.191000000      -1.20385617E-19
  0.192000002      -1.20623445E-19
  0.193000004      -1.16074094E-19
  0.194000006      -1.06092783E-19
  0.194999993      -9.01486699E-20
  0.195999995      -6.78656521E-20
  0.196999997      -3.90631424E-20
  0.197999999      -3.79522138E-21
  0.199000001       3.76138282E-20
  0.200000003       8.45396616E-20
  0.201000005       1.36035797E-19
  0.202000007       1.90821455E-19
  0.202999994       2.47281276E-19
  0.203999996       3.03478815E-19
  0.204999998       3.57185093E-19
  0.206000000       4.05923583E-19
  0.207000002       4.47031771E-19
  0.208000004       4.77739559E-19
  0.209000006       4.95263225E-19
  0.209999993       4.96914174E-19
  0.210999995       4.80218774E-19
  0.211999997       4.43047552E-19
  0.213000000       3.83748499E-19
  0.214000002       3.01280246E-19
  0.215000004       1.95339671E-19
  0.216000006       6.64778433E-20
  0.216999993      -8.38017389E-20
  0.217999995      -2.52969176E-19
  0.218999997      -4.37424533E-19
  0.219999999      -6.32490317E-19
  0.221000001      -8.32445152E-19
  0.222000003      -1.03060273E-18
  0.223000005      -1.21943886E-18
  0.224000007      -1.39076730E-18
  0.224999994      -1.53596418E-18
  0.225999996      -1.64623821E-18
  0.226999998      -1.71294174E-18
  0.228000000      -1.72791495E-18
  0.229000002      -1.68385518E-18
  0.230000004      -1.57469856E-18
  0.231000006      -1.39600129E-18
  0.231999993      -1.14530559E-18
  0.232999995      -8.22474368E-19
  0.233999997      -4.29977685E-19
  0.234999999       2.68851923E-20
  0.236000001       5.39845261E-19
  0.237000003       1.09761842E-18
  0.238000005       1.68596862E-18
  0.238999993       2.28788914E-18
  0.239999995       2.88390772E-18
  0.240999997       3.45251953E-18
  0.241999999       3.97074280E-18
  0.243000001       4.41479114E-18
  0.244000003       4.76085125E-18
  0.245000005       4.98594116E-18
  0.246000007       5.06883458E-18
  0.246999994       4.99101467E-18
  0.247999996       4.73762981E-18
  0.248999998       4.29841262E-18
  0.250000000       3.66852451E-18
  0.250999987       2.84928835E-18
  0.252000004       1.84876563E-18
  0.252999991       6.82147934E-19
  0.254000008      -6.28077050E-19
  0.254999995      -2.05220760E-18
  0.256000012      -3.55368289E-18
  0.256999999      -5.08971924E-18
  0.257999986      -6.61223532E-18
  0.259000003      -8.06905506E-18
  0.259999990      -9.40537030E-18
  0.261000007      -1.05654299E-17
  0.261999995      -1.14944166E-17
  0.263000011      -1.21404604E-17
  0.263999999      -1.24567130E-17
  0.264999986      -1.24034310E-17
  0.266000003      -1.19499731E-17
  0.266999990      -1.10766416E-17
  0.268000007      -9.77628553E-18
  0.268999994      -8.05557780E-18
  0.270000011      -5.93590308E-18
  0.270999998      -3.45378925E-18
  0.272000015      -6.60826009E-19
  0.273000002       2.37696181E-18
  0.273999989       5.58030724E-18
  0.275000006       8.85845833E-18
  0.275999993       1.21114784E-17
  0.277000010       1.52330389E-17
  0.277999997       1.81136490E-17
  0.279000014       2.06442195E-17
  0.280000001       2.27198589E-17
  0.280999988       2.42437787E-17
  0.282000005       2.51311698E-17
  0.282999992       2.53128964E-17
  0.284000009       2.47388711E-17
  0.284999996       2.33809499E-17
  0.286000013       2.12352152E-17
  0.287000000       1.83235296E-17
  0.287999988       1.46942382E-17
  0.289000005       1.04219678E-17
  0.289999992       5.60644780E-18
  0.291000009       3.70366604E-19
  0.291999996      -5.14373041E-18
  0.293000013      -1.07774239E-17
  0.294000000      -1.63611925E-17
  0.294999987      -2.17198190E-17
  0.296000004      -2.66782771E-17
  0.296999991      -3.10678715E-17
  0.298000008      -3.47324338E-17
  0.298999995      -3.75342997E-17
  0.300000012      -3.93598807E-17
  0.300999999      -4.01245099E-17
  0.301999986      -3.97764290E-17
  0.303000003      -3.82996370E-17
  0.303999990      -3.57154784E-17
  0.305000007      -3.20828552E-17
  0.305999994      -2.74969692E-17
  0.307000011      -2.20866008E-17
  0.307999998      -1.60099683E-17
  0.308999985      -9.44928367E-18
  0.310000002      -2.60418853E-18
  0.310999990       4.31571558E-18
  0.312000006       1.10989382E-17
  0.312999994       1.75404592E-17
  0.314000010       2.34500211E-17
  0.314999998       2.86599719E-17
  0.316000015       3.30323063E-17
  0.317000002       3.64645401E-17
  0.317999989       3.88941085E-17
  0.319000006       4.03010104E-17
  0.319999993       4.07084928E-17
  0.321000010       4.01816978E-17
  0.321999997       3.88241720E-17
  0.323000014       3.67723571E-17
  0.324000001       3.41882052E-17
  0.324999988       3.12502218E-17
  0.326000005       2.81432421E-17
  0.326999992       2.50474458E-17
  0.328000009       2.21270880E-17
  0.328999996       1.95195384E-17
  0.330000013       1.73252053E-17
  0.331000000       1.55989389E-17
  0.331999987       1.43434938E-17
  0.333000004       1.35055185E-17
  0.333999991       1.29745314E-17
  0.335000008       1.25851576E-17
  0.335999995       1.21228265E-17
  0.337000012       1.13329088E-17
  0.338000000       9.93314296E-18
  0.338999987       7.62902062E-18
  0.340000004       4.13161124E-18
  0.340999991      -8.22855906E-19
  0.342000008      -7.45249117E-18
  0.342999995      -1.59092656E-17
  0.344000012      -2.62596112E-17
  0.344999999      -3.84672006E-17
  0.345999986      -5.23789822E-17
  0.347000003      -6.77155394E-17
  0.347999990      -8.40666833E-17
  0.349000007      -1.00893112E-16
  0.349999994      -1.17534702E-16
  0.351000011      -1.33225683E-16
  0.351999998      -1.47116851E-16
  0.352999985      -1.58304462E-16
  0.354000002      -1.65865224E-16
  0.354999989      -1.68896318E-16
  0.356000006      -1.66559315E-16
  0.356999993      -1.58126281E-16
  0.358000010      -1.43026278E-16
  0.358999997      -1.20890144E-16
  0.360000014      -9.15915056E-17
  0.361000001      -5.52816086E-17
  0.361999989      -1.24160133E-17
  0.363000005       3.62289888E-17
  0.363999993       8.95519628E-17
  0.365000010       1.46135325E-16
  0.365999997       2.04268692E-16
  0.367000014       2.61987026E-16
  0.368000001       3.17123365E-16
  0.368999988       3.67375448E-16
  0.370000005       4.10384525E-16
  0.370999992       4.43824486E-16
  0.372000009       4.65498550E-16
  0.372999996       4.73439643E-16
  0.374000013       4.66011428E-16
  0.375000000       4.42005482E-16
  0.375999987       4.00729964E-16
  0.377000004       3.42085876E-16
  0.377999991       2.66626331E-16
  0.379000008       1.75594880E-16
  0.379999995       7.09394990E-17
  0.381000012      -4.47003572E-17
  0.381999999      -1.68035706E-16
  0.382999986      -2.95199664E-16
  0.384000003      -4.21848560E-16
  0.384999990      -5.43290744E-16
  0.386000007      -6.54640478E-16
  0.386999995      -7.50992646E-16
  0.388000011      -8.27613023E-16
  0.388999999      -8.80138065E-16
  0.389999986      -9.04776454E-16
  0.391000003      -8.98504810E-16
  0.391999990      -8.59248539E-16
  0.393000007      -7.86040858E-16
  0.393999994      -6.79150117E-16
  0.395000011      -5.40168686E-16
  0.395999998      -3.72056337E-16
  0.397000015      -1.79133294E-16
  0.398000002       3.29817358E-17
  0.398999989       2.57489704E-16
  0.400000006       4.86585753E-16
  0.400999993       7.11687511E-16
  0.402000010       9.23712299E-16
  0.402999997       1.11339633E-15
  0.404000014       1.27164633E-15
  0.405000001       1.38991214E-15
  0.405999988       1.46056750E-15
  0.407000005       1.47728391E-15
  0.407999992       1.43538288E-15
  0.409000009       1.33215106E-15
  0.409999996       1.16710192E-15
  0.411000013       9.42170629E-16
  0.412000000       6.61828558E-16
  0.412999988       3.33107062E-16
  0.414000005      -3.44775861E-17
  0.414999992      -4.29102656E-16
  0.416000009      -8.36922074E-16
  0.416999996      -1.24245090E-15
  0.418000013      -1.62904362E-15
  0.419000000      -1.97945565E-15
  0.419999987      -2.27647198E-15
  0.421000004      -2.50358312E-15
  0.421999991      -2.64568729E-15
  0.423000008      -2.68979145E-15
  0.423999995      -2.62568588E-15
  0.425000012      -2.44656446E-15
  0.425999999      -2.14956019E-15
  0.426999986      -1.73617158E-15
  0.428000003      -1.21255487E-15
  0.428999990      -5.89660239E-16
  0.430000007       1.16805010E-16
  0.430999994       8.86596533E-16
  0.432000011       1.69534248E-15
  0.432999998       2.51514025E-15
  0.433999985       3.31533270E-15
  0.435000002       4.06344702E-15
  0.435999990       4.72627063E-15
  0.437000006       5.27103987E-15
  0.437999994       5.66669743E-15
  0.439000010       5.88518195E-15
  0.439999998       5.90270325E-15
  0.441000015       5.70095059E-15
  0.442000002       5.26819299E-15
  0.442999989       4.60021349E-15
  0.444000006       3.70103762E-15
  0.444999993       2.58341703E-15
  0.446000010       1.26902370E-15
  0.446999997      -2.11660802E-16
  0.448000014      -1.81978570E-15
  0.449000001      -3.50890281E-15
  0.449999988      -5.22606792E-15
  0.451000005      -6.91325168E-15
  0.451999992      -8.50902787E-15
  0.453000009      -9.95050515E-15
  0.453999996      -1.11754334E-14
  0.455000013      -1.21244415E-14
  0.456000000      -1.27433134E-14
  0.456999987      -1.29852446E-14
  0.458000004      -1.28129759E-14
  0.458999991      -1.22007447E-14
  0.460000008      -1.11359532E-14
  0.460999995      -9.62049095E-15
  0.462000012      -7.67163585E-15
  0.463000000      -5.32247806E-15
  0.463999987      -2.62182743E-15
  0.465000004       3.66428518E-16
  0.465999991       3.56452386E-15
  0.467000008       6.88256198E-15
  0.467999995       1.02207849E-14
  0.469000012       1.34723114E-14
  0.469999999       1.65262837E-14
  0.470999986       1.92713277E-14
  0.472000003       2.15992351E-14
  0.472999990       2.34087465E-14
  0.474000007       2.46093158E-14
  0.474999994       2.51247252E-14
  0.476000011       2.48964159E-14
  0.476999998       2.38864138E-14
  0.477999985       2.20797230E-14
  0.479000002       1.94860810E-14
  0.479999989       1.61409853E-14
  0.481000006       1.21059118E-14
  0.481999993       7.46769657E-15
  0.483000010       2.33703442E-15
  0.483999997      -3.15388059E-15
  0.485000014      -8.85453854E-15
  0.486000001      -1.46000562E-14
  0.486999989      -2.02157779E-14
  0.488000005      -2.55224224E-14
  0.488999993      -3.03416180E-14
  0.490000010      -3.45016509E-14
  0.490999997      -3.78432942E-14
  0.492000014      -4.02254388E-14
  0.493000001      -4.15304286E-14
  0.493999988      -4.16688507E-14
  0.495000005      -4.05835982E-14
  0.495999992      -3.82530853E-14
  0.497000009      -3.46934361E-14
  0.497999996      -2.99595282E-14
  0.499000013      -2.41448520E-14
  0.500000000      -1.73801030E-14
  0.500999987      -9.83053055E-15
  0.501999974      -1.69206309E-15
  0.503000021       6.81369227E-15
  0.504000008       1.54454611E-14
  0.504999995       2.39491654E-14
  0.505999982       3.20654453E-14
  0.507000029       3.95376074E-14
  0.508000016       4.61197785E-14
  0.509000003       5.15849638E-14
  0.509999990       5.57328062E-14
  0.510999978       5.83967214E-14
  0.512000024       5.94501865E-14
  0.513000011       5.88119776E-14
  0.513999999       5.64500873E-14
  0.514999986       5.23842071E-14
  0.515999973       4.66866536E-14
  0.517000020       3.94816355E-14
  0.518000007       3.09428318E-14
  0.518999994       2.12893583E-14
  0.519999981       1.07801527E-14
  0.521000028      -2.93039810E-16
  0.522000015      -1.16139169E-14
  0.523000002      -2.28508551E-14
  0.523999989      -3.36668729E-14
  0.524999976      -4.37300071E-14
  0.526000023      -5.27237725E-14
  0.527000010      -6.03573994E-14
  0.527999997      -6.63754533E-14
  0.528999984      -7.05665859E-14
  0.529999971      -7.27710535E-14
  0.531000018      -7.28867921E-14
  0.532000005      -7.08737404E-14
  0.532999992      -6.67563132E-14
  0.533999979      -6.06238828E-14
  0.535000026      -5.26291928E-14
  0.536000013      -4.29847401E-14
  0.537000000      -3.19571707E-14
  0.537999988      -1.98598801E-14
  0.538999975      -7.04398698E-15
  0.540000021       6.11205253E-15
  0.541000009       1.92138667E-14
  0.541999996       3.18632822E-14
  0.542999983       4.36707555E-14
  0.544000030       5.42677238E-14
  0.545000017       6.33184707E-14
  0.546000004       7.05311121E-14
  0.546999991       7.56673844E-14
  0.547999978       7.85508065E-14
  0.549000025       7.90730057E-14
  0.550000012       7.71980068E-14
  0.550999999       7.29641906E-14
  0.551999986       6.64839548E-14
  0.552999973       5.79410245E-14
  0.554000020       4.75854063E-14
  0.555000007       3.57262200E-14
  0.555999994       2.27225584E-14
  0.556999981       8.97261832E-15
  0.558000028      -5.09849248E-15
  0.559000015      -1.90519529E-14
  0.560000002      -3.24489920E-14
  0.560999990      -4.48647907E-14
  0.561999977      -5.59020739E-14
  0.563000023      -6.52039525E-14
  0.564000010      -7.24655931E-14
  0.564999998      -7.74443308E-14
  0.565999985      -7.99679198E-14
  0.566999972      -7.99405843E-14
  0.568000019      -7.73466848E-14
  0.569000006      -7.22518833E-14
  0.569999993      -6.48017339E-14
  0.570999980      -5.52177051E-14
  0.572000027      -4.37907801E-14
  0.573000014      -3.08727924E-14
  0.574000001      -1.68657762E-14
  0.574999988      -2.20964087E-15
  0.575999975       1.26314330E-14
  0.577000022       2.71834692E-14
  0.578000009       4.09775736E-14
  0.578999996       5.35647474E-14
  0.579999983       6.45301886E-14
  0.580999970       7.35065966E-14
  0.582000017       8.01860816E-14
  0.583000004       8.43302817E-14
  0.583999991       8.57783896E-14
  0.584999979       8.44527559E-14
  0.586000025       8.03620001E-14
  0.587000012       7.36014033E-14
  0.588000000       6.43506651E-14
  0.588999987       5.28689810E-14
  0.589999974       3.94876901E-14
  0.591000021       2.46006252E-14
  0.592000008       8.65251186E-15
  0.592999995      -7.87426138E-15
  0.593999982      -2.44741022E-14
  0.595000029      -4.06334275E-14
  0.596000016      -5.58462070E-14
  0.597000003      -6.96293609E-14
  0.597999990      -8.15375260E-14
  0.598999977      -9.11767677E-14
  0.600000024      -9.82167906E-14
  0.601000011      -1.02401330E-13
  0.601999998      -1.03556378E-13
  0.602999985      -1.01595985E-13
  0.603999972      -9.65255301E-14
  0.605000019      -8.84422676E-14
  0.606000006      -7.75332421E-14
  0.606999993      -6.40705073E-14
  0.607999980      -4.84039417E-14
  0.609000027      -3.09517325E-14
  0.610000014      -1.21888736E-14
  0.611000001       7.36598994E-15
  0.611999989       2.71650124E-14
  0.612999976       4.66464703E-14
  0.614000022       6.52505393E-14
  0.615000010       8.24350354E-14
  0.615999997       9.76907493E-14
  0.616999984       1.10555865E-13
  0.617999971       1.20629188E-13
  0.619000018       1.27581620E-13
  0.620000005       1.31165871E-13
  0.620999992       1.31223767E-13
  0.621999979       1.27691396E-13
  0.623000026       1.20601513E-13
  0.624000013       1.10083539E-13
  0.625000000       9.63608940E-14
  0.625999987       7.97458819E-14
  0.626999974       6.06322040E-14
  0.628000021       3.94853048E-14
  0.629000008       1.68308513E-14
  0.629999995      -6.75841871E-15
  0.630999982      -3.06771041E-14
  0.632000029      -5.43024522E-14
  0.633000016      -7.70101756E-14
  0.634000003      -9.81904242E-14
  0.634999990      -1.17263445E-13
  0.635999978      -1.33694610E-13
  0.637000024      -1.47008490E-13
  0.638000011      -1.56801465E-13
  0.638999999      -1.62752732E-13
  0.639999986      -1.64633430E-13
  0.640999973      -1.62313549E-13
  0.642000020      -1.55766581E-13
  0.643000007      -1.45071726E-13
  0.643999994      -1.30413597E-13
  0.644999981      -1.12079427E-13
  0.646000028      -9.04538353E-14
  0.647000015      -6.60112156E-14
  0.648000002      -3.93059168E-14
  0.648999989      -1.09603963E-14
  0.649999976       1.83484091E-14
  0.651000023       4.79042024E-14
  0.652000010       7.69676410E-14
  0.652999997       1.04793527E-13
  0.653999984       1.30648490E-13
  0.654999971       1.53828773E-13
  0.656000018       1.73677777E-13
  0.657000005       1.89602945E-13
  0.657999992       2.01091653E-13
  0.658999979       2.07725628E-13
  0.660000026       2.09193651E-13
  0.661000013       2.05302233E-13
  0.662000000       1.95983813E-13
  0.662999988       1.81302388E-13
  0.663999975       1.61456298E-13
  0.665000021       1.36777999E-13
  0.666000009       1.07730732E-13
  0.666999996       7.49020393E-14
  0.667999983       3.89941206E-14
  0.669000030       8.11206418E-16
  0.670000017      -3.87560162E-14
  0.671000004      -7.87485989E-14
  0.671999991      -1.18159904E-13
  0.672999978      -1.55958200E-13
  0.674000025      -1.91110813E-13
  0.675000012      -2.22609339E-13
  0.675999999      -2.49495493E-13
  0.676999986      -2.70886829E-13
  0.677999973      -2.86001908E-13
  0.679000020      -2.94184219E-13
  0.680000007      -2.94924079E-13
  0.680999994      -2.87878174E-13
  0.681999981      -2.72885772E-13
  0.683000028      -2.49981378E-13
  0.684000015      -2.19403163E-13
  0.685000002      -1.81596654E-13
  0.685999990      -1.37213496E-13
  0.686999977      -8.71049719E-14
  0.688000023      -3.23100955E-14
  0.689000010       2.59616666E-14
  0.689999998       8.63528744E-14
  0.690999985       1.47385603E-13
  0.691999972       2.07493487E-13
  0.693000019       2.65057697E-13
  0.694000006       3.18446224E-13
  0.694999993       3.66055575E-13
  0.695999980       4.06354068E-13
  0.697000027       4.37925331E-13
  0.698000014       4.59511444E-13
  0.699000001       4.70053846E-13
  0.699999988       4.68731445E-13
  0.700999975       4.54994495E-13
  0.702000022       4.28592952E-13
  0.703000009       3.89598293E-13
  0.703999996       3.38418069E-13
  0.704999983       2.75802276E-13
  0.705999970       2.02840579E-13
  0.707000017       1.20950599E-13
  0.708000004       3.18564077E-14
  0.708999991      -6.24422118E-14
  0.709999979      -1.59709702E-13
  0.711000025      -2.57523088E-13
  0.712000012      -3.53328125E-13
  0.713000000      -4.44501667E-13
  0.713999987      -5.28419431E-13
  0.714999974      -6.02526980E-13
  0.716000021      -6.64412698E-13
  0.717000008      -7.11880153E-13
  0.717999995      -7.43018494E-13
  0.718999982      -7.56268149E-13
  0.720000029      -7.50480190E-13
  0.721000016      -7.24967070E-13
  0.722000003      -6.79543227E-13
  0.722999990      -6.14553222E-13
  0.723999977      -5.30886749E-13
  0.725000024      -4.29978779E-13
  0.726000011      -3.13794672E-13
  0.726999998      -1.84799387E-13
  0.727999985      -4.59112898E-14
  0.728999972       9.95589448E-14
  0.730000019       2.47983410E-13
  0.731000006       3.95504484E-13
  0.731999993       5.38132689E-13
  0.732999980       6.71852656E-13
  0.734000027       7.92734585E-13
  0.735000014       8.97048061E-13
  0.736000001       9.81375029E-13
  0.736999989       1.04271875E-12
  0.737999976       1.07860520E-12
  0.739000022       1.08717332E-12
  0.740000010       1.06725230E-12
  0.740999997       1.01842102E-12
  0.741999984       9.41048671E-13
  0.742999971       8.36314525E-13
  0.744000018       7.06204192E-13
  0.745000005       5.53483095E-13
  0.745999992       3.81645643E-13
  0.746999979       1.94841566E-13
  0.748000026      -2.21964476E-15
  0.749000013      -2.04384361E-13
  0.750000000      -4.06187616E-13
  0.750999987      -6.01999787E-13
  0.751999974      -7.86183672E-13
  0.753000021      -9.53256896E-13
  0.754000008      -1.09805557E-12
  0.754999995      -1.21589490E-12
  0.755999982      -1.30271998E-12
  0.757000029      -1.35524415E-12
  0.758000016      -1.37106841E-12
  0.759000003      -1.34877884E-12
  0.759999990      -1.28801830E-12
  0.760999978      -1.18952819E-12
  0.762000024      -1.05515965E-12
  0.763000011      -8.87851695E-13
  0.763999999      -6.91576408E-13
  0.764999986      -4.71251727E-13
  0.765999973      -2.32623274E-13
  0.767000020       1.78819667E-14
  0.768000007       2.73326473E-13
  0.768999994       5.26453230E-13
  0.769999981       7.69891529E-13
  0.771000028       9.96372039E-13
  0.772000015       1.19894448E-12
  0.773000002       1.37119135E-12
  0.773999989       1.50743144E-12
  0.774999976       1.60290596E-12
  0.776000023       1.65394207E-12
  0.777000010       1.65808730E-12
  0.777999997       1.61421039E-12
  0.778999984       1.52256473E-12
  0.779999971       1.38481099E-12
  0.781000018       1.20399816E-12
  0.782000005       9.84501976E-13
  0.782999992       7.31921414E-13
  0.783999979       4.52936164E-13
  0.785000026       1.55128284E-13
  0.786000013      -1.53227284E-13
  0.787000000      -4.63397333E-13
  0.787999988      -7.66443658E-13
  0.788999975      -1.05348716E-12
  0.790000021      -1.31597500E-12
  0.791000009      -1.54594274E-12
  0.791999996      -1.73626261E-12
  0.792999983      -1.88087068E-12
  0.794000030      -1.97496490E-12
  0.795000017      -2.01516841E-12
  0.796000004      -1.99964958E-12
  0.796999991      -1.92819892E-12
  0.797999978      -1.80225485E-12
  0.799000025      -1.62488057E-12
  0.800000012      -1.40069000E-12
  0.800999999      -1.13572476E-12
  0.801999986      -8.37285807E-13
  0.802999973      -5.13723883E-13
  0.804000020      -1.74195050E-13
  0.805000007       1.71611057E-13
  0.805999994       5.13762752E-13
  0.806999981       8.42387846E-13
  0.808000028       1.14797646E-12
  0.809000015       1.42167452E-12
  0.810000002       1.65556002E-12
  0.810999990       1.84289172E-12
  0.811999977       1.97832202E-12
  0.813000023       2.05806834E-12
  0.814000010       2.08003601E-12
  0.814999998       2.04388785E-12
  0.815999985       1.95105954E-12
  0.816999972       1.80471718E-12
  0.818000019       1.60966141E-12
  0.819000006       1.37217755E-12
  0.819999993       1.09983832E-12
  0.820999980       8.01264003E-13
  0.822000027       4.85848720E-13
  0.823000014       1.63460310E-13
  0.824000001      -1.55875651E-13
  0.824999988      -4.62297897E-13
  0.825999975      -7.46427171E-13
  0.827000022      -9.99668339E-13
  0.828000009      -1.21448793E-12
  0.828999996      -1.38465801E-12
  0.829999983      -1.50545581E-12
  0.830999970      -1.57381584E-12
  0.832000017      -1.58842655E-12
  0.833000004      -1.54976921E-12
  0.833999991      -1.46009680E-12
  0.834999979      -1.32335397E-12
  0.836000025      -1.14504033E-12
  0.837000012      -9.32020737E-13
  0.838000000      -6.92289271E-13
  0.838999987      -4.34694869E-13
  0.839999974      -1.68636521E-13
  0.841000021       9.62609305E-14
  0.842000008       3.50479845E-13
  0.842999995       5.84940733E-13
  0.843999982       7.91319755E-13
  0.845000029       9.62341860E-13
  0.846000016       1.09204009E-12
  0.847000003       1.17597078E-12
  0.847999990       1.21137909E-12
  0.848999977       1.19730669E-12
  0.850000024       1.13463937E-12
  0.851000011       1.02609132E-12
  0.851999998       8.76126754E-13
  0.852999985       6.90820610E-13
  0.853999972       4.77662614E-13
  0.855000019       2.45310960E-13
  0.856000006       3.30328831E-15