   0.00000000       0.00000000    
   1.00000005E-03   0.00000000    
   2.00000009E-03   0.00000000    
   3.00000003E-03   0.00000000    
   4.00000019E-03   0.00000000    
   4.99999989E-03   0.00000000    
   6.00000005E-03   0.00000000    
   7.00000022E-03   0.00000000    
   8.00000038E-03   0.00000000    
   8.99999961E-03   0.00000000    
   9.99999978E-03   0.00000000    
   1.09999999E-02   0.00000000    
   1.20000001E-02   0.00000000    
   1.30000003E-02   0.00000000    
   1.40000004E-02   0.00000000    
   1.49999997E-02   8.90600508E-38
   1.60000008E-02   4.46934437E-37
   1.70000009E-02   1.70754419E-36
   1.79999992E-02   5.72725292E-36
   1.89999994E-02   1.75440092E-35
   1.99999996E-02   4.98593448E-35
   2.09999997E-02   1.32691375E-34
   2.19999999E-02   3.33005060E-34
   2.30000000E-02   7.92580005E-34
   2.40000002E-02   1.79755163E-33
   2.50000004E-02   3.90030936E-33
   2.60000005E-02   8.12378121E-33
   2.70000007E-02   1.62889766E-32
   2.80000009E-02   3.15171194E-32
   2.89999992E-02   5.89641249E-32
   2.99999993E-02   1.06840975E-31
   3.09999995E-02   1.87748418E-31
   3.20000015E-02   3.20293364E-31
   3.29999998E-02   5.30836839E-31
   3.40000018E-02   8.55022993E-31
   3.50000001E-02   1.33842567E-30
   3.59999985E-02   2.03518716E-30
   3.70000005E-02   3.00288815E-30
   3.79999988E-02   4.29105016E-30
   3.90000008E-02   5.91963721E-30
   3.99999991E-02   7.84271851E-30
   4.10000011E-02   9.89118499E-30
   4.19999994E-02   1.16872072E-29
   4.30000015E-02   1.25222716E-29
   4.39999998E-02   1.11904911E-29
   4.50000018E-02   5.76996988E-30
   4.60000001E-02  -6.65206122E-30
   4.69999984E-02  -3.03089734E-29
   4.80000004E-02  -7.11289021E-29
   4.89999987E-02  -1.37129233E-28
   5.00000007E-02  -2.38788422E-28
   5.09999990E-02  -3.89327460E-28
   5.20000011E-02  -6.04801851E-28
   5.29999994E-02  -9.03868679E-28
   5.40000014E-02  -1.30705113E-27
   5.49999997E-02  -1.83528085E-27
   5.60000017E-02  -2.50745563E-27
   5.70000000E-02  -3.33671908E-27
   5.79999983E-02  -4.32514985E-27
   5.90000004E-02  -5.45656090E-27
   5.99999987E-02  -6.68715232E-27
   6.10000007E-02  -7.93386764E-27
   6.19999990E-02  -9.06046732E-27
   6.30000010E-02  -9.86158715E-27
   6.40000030E-02  -1.00453917E-26
   6.49999976E-02  -9.21588216E-27
   6.59999996E-02  -6.85648162E-27
   6.70000017E-02  -2.31717491E-27
   6.80000037E-02   5.19177403E-27
   6.89999983E-02   1.65957152E-26
   7.00000003E-02   3.29365144E-26
   7.10000023E-02   5.53331568E-26
   7.19999969E-02   8.49162049E-26
   7.29999989E-02   1.22730043E-25
   7.40000010E-02   1.69597021E-25
   7.50000030E-02   2.25938465E-25
   7.59999976E-02   2.91549136E-25
   7.69999996E-02   3.65323901E-25
   7.80000016E-02   4.44939688E-25
   7.90000036E-02   5.26499770E-25
   7.99999982E-02   6.04154301E-25
   8.10000002E-02   6.69717813E-25
   8.20000023E-02   7.12312949E-25
   8.29999968E-02   7.18079424E-25
   8.39999989E-02   6.69996577E-25
   8.50000009E-02   5.47877457E-25
   8.60000029E-02   3.28601662E-25
   8.69999975E-02  -1.33405315E-26
   8.79999995E-02  -5.04914761E-25
   8.90000015E-02  -1.17314493E-24
   9.00000036E-02  -2.04318110E-24
   9.09999982E-02  -3.13577870E-24
   9.20000002E-02  -4.46415913E-24
   9.30000022E-02  -6.03024840E-24
   9.39999968E-02  -7.82034576E-24
   9.49999988E-02  -9.80031485E-24
   9.60000008E-02  -1.19104775E-23
   9.70000029E-02  -1.40604406E-23
   9.79999974E-02  -1.61241844E-23
   9.89999995E-02  -1.79358397E-23
  0.100000001      -1.92866489E-23
  0.101000004      -1.99236872E-23
  0.101999998      -1.95510119E-23
  0.103000000      -1.78339284E-23
  0.104000002      -1.44070835E-23
  0.104999997      -8.88706636E-24
  0.105999999      -8.90132797E-25
  0.107000001       9.94450916E-24
  0.108000003       2.39255785E-23
  0.108999997       4.12748339E-23
  0.109999999       6.20867990E-23
  0.111000001       8.62839587E-23
  0.112000003       1.13568808E-22
  0.112999998       1.43374674E-22
  0.114000000       1.74817913E-22
  0.115000002       2.06654547E-22
  0.115999997       2.37245260E-22
  0.116999999       2.64533057E-22
  0.118000001       2.86038162E-22
  0.119000003       2.98875542E-22
  0.119999997       2.99799557E-22
  0.120999999       2.85281184E-22
  0.122000001       2.51621385E-22
  0.123000003       1.95104462E-22
  0.123999998       1.12192707E-22
  0.125000000      -2.37259384E-25
  0.126000002      -1.44618891E-22
  0.127000004      -3.22385919E-22
  0.128000006      -5.33636609E-22
  0.128999993      -7.76783028E-22
  0.129999995      -1.04820141E-21
  0.130999997      -1.34190132E-21
  0.131999999      -1.64923618E-21
  0.133000001      -1.95868029E-21
  0.134000003      -2.25569952E-21
  0.135000005      -2.52274436E-21
  0.136000007      -2.73939520E-21
  0.136999995      -2.88268566E-21
  0.137999997      -2.92763028E-21
  0.138999999      -2.84797558E-21
  0.140000001      -2.61718593E-21
  0.141000003      -2.20966902E-21
  0.142000005      -1.60223087E-21
  0.143000007      -7.75738804E-22
  0.143999994       2.83043848E-22
  0.144999996       1.57950683E-21
  0.145999998       3.10919522E-21
  0.147000000       4.85585352E-21
  0.148000002       6.78961641E-21
  0.149000004       8.86546331E-21
  0.150000006       1.10220670E-20
  0.150999993       1.31811772E-20
  0.151999995       1.52476690E-20
  0.152999997       1.71103941E-20
  0.153999999       1.86439612E-20
  0.155000001       1.97115314E-20
  0.156000003       2.01687151E-20
  0.157000005       1.98685859E-20
  0.158000007       1.86678056E-20
  0.158999994       1.64337814E-20
  0.159999996       1.30527315E-20
  0.160999998       8.43843213E-21
  0.162000000       2.54139268E-21
  0.163000003      -4.64188920E-21
  0.164000005      -1.30600122E-20
  0.165000007      -2.25985646E-20
  0.165999994      -3.30733369E-20
  0.166999996      -4.42254150E-20
  0.167999998      -5.57186922E-20
  0.169000000      -6.71404086E-20
  0.170000002      -7.80051092E-20
  0.171000004      -8.77625834E-20
  0.172000006      -9.58100427E-20
  0.172999993      -1.01508723E-19
  0.173999995      -1.04204982E-19
  0.174999997      -1.03255663E-19
  0.175999999      -9.80573373E-20
  0.177000001      -8.80788185E-20
  0.178000003      -7.28959765E-20
  0.179000005      -5.22277671E-20
  0.180000007      -2.59720786E-20
  0.180999994       5.76027576E-21
  0.181999996       4.26151335E-20
  0.182999998       8.39700767E-20
  0.184000000       1.28917003E-19
  0.185000002       1.76254159E-19
  0.186000004       2.24489322E-19
  0.187000006       2.71856114E-19
  0.187999994       3.16344162E-19
  0.188999996       3.55744610E-19
  0.189999998       3.87710979E-19
  0.191000000       4.09835113E-19
  0.192000002       4.19737241E-19
  0.193000004       4.15168619E-19
  0.194000006       3.94123877E-19
  0.194999993       3.54959900E-19
  0.195999995       2.96517134E-19
  0.196999997       2.18238370E-19
  0.197999999       1.20279609E-19
  0.199000001       3.60718279E-21
  0.200000003      -1.29925000E-19
  0.201000005      -2.77524214E-19
  0.202000007      -4.35439558E-19
  0.202999994      -5.98979938E-19
  0.203999996      -7.62573206E-19
  0.204999998      -9.19870853E-19
  0.206000000      -1.06389882E-18
  0.207000002      -1.18725564E-18
  0.208000004      -1.28235474E-18
  0.209000006      -1.34170774E-18
  0.209999993      -1.35824235E-18
  0.210999995      -1.32564503E-18
  0.211999997      -1.23871848E-18
  0.213000000      -1.09374081E-18
  0.214000002      -8.88810428E-19
  0.215000004      -6.24162676E-19
  0.216000006      -3.02437963E-19
  0.216999993       7.11128594E-20
  0.217999995       4.88504539E-19
  0.218999997       9.38989996E-19
  0.219999999       1.40914281E-18
  0.221000001       1.88305991E-18
  0.222000003       2.34269192E-18
  0.223000005       2.76830323E-18
  0.224000007       3.13905840E-18
  0.224999994       3.43372681E-18
  0.225999996       3.63149122E-18
  0.226999998       3.71283906E-18
  0.228000000       3.66051037E-18
  0.229000002       3.46046894E-18
  0.230000004       3.10286118E-18
  0.231000006       2.58292109E-18
  0.231999993       1.90177508E-18
  0.232999995       1.06710662E-18
  0.233999997       9.36321472E-20
  0.234999999      -9.96651515E-19
  0.236000001      -2.17448640E-18
  0.237000003      -3.40366748E-18
  0.238000005      -4.64167727E-18
  0.238999993      -5.84064869E-18
  0.239999995      -6.94865546E-18
  0.240999997      -7.91131668E-18
  0.241999999      -8.67368604E-18
  0.243000001      -9.18238309E-18
  0.244000003      -9.38789611E-18
  0.245000005      -9.24700575E-18
  0.246000007      -8.72522104E-18
  0.246999994      -7.79914354E-18
  0.247999996      -6.45865476E-18
  0.248999998      -4.70881745E-18
  0.250000000      -2.57138337E-18
  0.250999987      -8.58043109E-20
  0.252000004       2.69034931E-18
  0.252999991       5.68164182E-18
  0.254000008       8.79576052E-18
  0.254999995       1.19252801E-17
  0.256000012       1.49502109E-17
  0.256999999       1.77413218E-17
  0.257999986       2.01641719E-17
  0.259000003       2.20837851E-17
  0.259999990       2.33698375E-17
  0.261000007       2.39022027E-17
  0.261999995       2.35766922E-17
  0.263000011       2.23107568E-17
  0.263999999       2.00489489E-17
  0.264999986       1.67678923E-17
  0.266000003       1.24805143E-17
  0.266999990       7.23931101E-18
  0.268000007       1.13841621E-18
  0.268999994      -5.68572437E-18
  0.270000011      -1.30552336E-17
  0.270999998      -2.07533577E-17
  0.272000015      -2.85287579E-17
  0.273000002      -3.61015368E-17
  0.273999989      -4.31709400E-17
  0.275000006      -4.94245743E-17
  0.275999993      -5.45489814E-17
  0.277000010      -5.82412112E-17
  0.277999997      -6.02211243E-17
  0.279000014      -6.02439478E-17
  0.280000001      -5.81127004E-17
  0.280999988      -5.36899642E-17
  0.282000005      -4.69084828E-17
  0.282999992      -3.77801047E-17
  0.284000009      -2.64026076E-17
  0.284999996      -1.29639038E-17
  0.286000013       2.25669347E-18
  0.287000000       1.88904940E-17
  0.287999988       3.64849218E-17
  0.289000005       5.45125589E-17
  0.289999992       7.23837167E-17
  0.291000009       8.94623427E-17
  0.291999996       1.05084946E-16
  0.293000013       1.18582111E-16
  0.294000000       1.29301935E-16
  0.294999987       1.36634766E-16
  0.296000004       1.40038369E-16
  0.296999991       1.39062666E-16
  0.298000008       1.33373014E-16
  0.298999995       1.22771219E-16
  0.300000012       1.07213136E-16
  0.300999999       8.68221741E-17
  0.301999986       6.18977002E-17
  0.303000003       3.29178543E-17
  0.303999990       5.36104337E-19
  0.305000007      -3.44286699E-17
  0.305999994      -7.10086976E-17
  0.307000011      -1.08110283E-16
  0.307999998      -1.44542877E-16
  0.308999985      -1.79053567E-16
  0.310000002      -2.10366072E-16
  0.310999990      -2.37223224E-16
  0.312000006      -2.58431552E-16
  0.312999994      -2.72906604E-16
  0.314000010      -2.79717172E-16
  0.314999998      -2.78127186E-16
  0.316000015      -2.67633242E-16
  0.317000002      -2.47996318E-16
  0.317999989      -2.19266231E-16
  0.319000006      -1.81797530E-16
  0.319999993      -1.36255639E-16
  0.321000010      -8.36126736E-17
  0.321999997      -2.51324006E-17
  0.323000014       3.76557794E-17
  0.324000001       1.02993343E-16
  0.324999988       1.68939040E-16
  0.326000005       2.33423990E-16
  0.326999992       2.94314012E-16
  0.328000009       3.49477297E-16
  0.328999996       3.96855370E-16
  0.330000013       4.34535102E-16
  0.331000000       4.60819063E-16
  0.331999987       4.74291811E-16
  0.333000004       4.73879835E-16
  0.333999991       4.58902704E-16
  0.335000008       4.29112714E-16
  0.335999995       3.84722418E-16
  0.337000012       3.26417355E-16
  0.338000000       2.55353884E-16
  0.338999987       1.73141290E-16
  0.340000004       8.18081758E-17
  0.340999991      -1.62460026E-17
  0.342000008      -1.18313231E-16
  0.342999995      -2.21451311E-16
  0.344000012      -3.22568172E-16
  0.344999999      -4.18513579E-16
  0.345999986      -5.06175190E-16
  0.347000003      -5.82576026E-16
  0.347999990      -6.44970326E-16
  0.349000007      -6.90933987E-16
  0.349999994      -7.18447152E-16
  0.351000011      -7.25966052E-16
  0.351999998      -7.12481075E-16
  0.352999985      -6.77559972E-16
  0.354000002      -6.21373735E-16
  0.354999989      -5.44705183E-16
  0.356000006      -4.48939321E-16
  0.356999993      -3.36036023E-16
  0.358000010      -2.08485990E-16
  0.358999997      -6.92515609E-17
  0.360000014       7.83057938E-17
  0.361000001       2.30508820E-16
  0.361999989       3.83455918E-16
  0.363000005       5.33117931E-16
  0.363999993       6.75437413E-16
  0.365000010       8.06426982E-16
  0.365999997       9.22265037E-16
  0.367000014       1.01938573E-15
  0.368000001       1.09456128E-15
  0.368999988       1.14497552E-15
  0.370000005       1.16828692E-15
  0.370999992       1.16268147E-15
  0.372000009       1.12691423E-15
  0.372999996       1.06034094E-15
  0.374000013       9.62939453E-16
  0.375000000       8.35322717E-16
  0.375999987       6.78743806E-16
  0.377000004       4.95094358E-16
  0.377999991       2.86897153E-16
  0.379000008       5.72939703E-17
  0.379999995      -1.89971702E-16
  0.381000012      -4.50576582E-16
  0.381999999      -7.19645227E-16
  0.382999986      -9.91784313E-16
  0.384000003      -1.26112544E-15
  0.384999990      -1.52137822E-15
  0.386000007      -1.76589736E-15
  0.386999995      -1.98776419E-15
  0.388000011      -2.17988715E-15
  0.388999999      -2.33512309E-15
  0.389999986      -2.44641983E-15
  0.391000003      -2.50698374E-15
  0.391999990      -2.51046865E-15
  0.393000007      -2.45118714E-15
  0.393999994      -2.32434142E-15
  0.395000011      -2.12626700E-15
  0.395999998      -1.85468536E-15
  0.397000015      -1.50895521E-15
  0.398000002      -1.09031500E-15
  0.398999989      -6.02103418E-16
  0.400000006      -4.99470514E-17
  0.400999993       5.58098786E-16
  0.402000010       1.21146813E-15
  0.402999997       1.89707534E-15
  0.404000014       2.59938953E-15
  0.405000001       3.30060364E-15
  0.405999988       3.98090450E-15
  0.407000005       4.61884906E-15
  0.407999992       5.19184822E-15
  0.409000009       5.67675298E-15
  0.409999996       6.05053549E-15
  0.411000013       6.29105177E-15
  0.412000000       6.37786883E-15
  0.412999988       6.29313123E-15
  0.414000005       6.02243898E-15
  0.414999992       5.55570943E-15
  0.416000009       4.88798404E-15
  0.416999996       4.02014542E-15
  0.418000013       2.95950707E-15
  0.419000000       1.72024048E-15
  0.419999987       3.23604438E-16
  0.421000004      -1.20205241E-15
  0.421999991      -2.82154171E-15
  0.423000008      -4.49335393E-15
  0.423999995      -6.17045503E-15
  0.425000012      -7.80135810E-15
  0.425999999      -9.33146044E-15
  0.426999986      -1.07046211E-14
  0.428000003      -1.18649419E-14
  0.428999990      -1.27587107E-14
  0.430000007      -1.33364448E-14
  0.430999994      -1.35549700E-14
  0.432000011      -1.33794622E-14
  0.432999998      -1.27853703E-14
  0.433999985      -1.17601419E-14
  0.435000002      -1.03046666E-14
  0.435999990      -8.43435598E-15
  0.437000006      -6.17980161E-15
  0.437999994      -3.58692873E-15
  0.439000010      -7.16618514E-16
  0.439999998       2.35624703E-15
  0.441000015       5.54432277E-15
  0.442000002       8.74991387E-15
  0.442999989       1.18676355E-14
  0.444000006       1.47875605E-14
  0.444999993       1.73987835E-14
  0.446000010       1.95932849E-14
  0.446999997       2.12700121E-14
  0.448000014       2.23389913E-14
  0.449000001       2.27253671E-14
  0.449999988       2.23731844E-14
  0.451000005       2.12487566E-14
  0.451999992       1.93434830E-14
  0.453000009       1.66759374E-14
  0.453999996       1.32931199E-14
  0.455000013       9.27075189E-15
  0.456000000       4.71253895E-15
  0.456999987      -2.51657724E-16
  0.458000004      -5.46873693E-15
  0.458999991      -1.07663436E-14
  0.460000008      -1.59578466E-14
  0.460999995      -2.08481981E-14
  0.462000012      -2.52405078E-14
  0.463000000      -2.89431565E-14
  0.463999987      -3.17772033E-14
  0.465000004      -3.35838331E-14
  0.465999991      -3.42315897E-14
  0.467000008      -3.36230677E-14
  0.467999995      -3.17008179E-14
  0.469000012      -2.84521823E-14
  0.469999999      -2.39127769E-14
  0.470999986      -1.81684332E-14
  0.472000003      -1.13554067E-14
  0.472999990      -3.65873468E-15
  0.474000007       4.69133391E-15
  0.474999994       1.34248132E-14
  0.476000011       2.22393040E-14
  0.476999998       3.08089905E-14
  0.477999985       3.87951085E-14
  0.479000002       4.58576014E-14
  0.479999989       5.16675563E-14
  0.481000006       5.59200784E-14
  0.481999993       5.83471124E-14
  0.483000010       5.87297341E-14
  0.483999997       5.69094535E-14
  0.485000014       5.27979963E-14
  0.486000001       4.63851607E-14
  0.486999989       3.77443167E-14
  0.488000005       2.70351741E-14
  0.488999993       1.45035808E-14
  0.490000010       4.78151528E-16
  0.490999997      -1.46363312E-14
  0.492000014      -3.03687061E-14
  0.493000001      -4.61942631E-14
  0.493999988      -6.15502996E-14
  0.495000005      -7.58540163E-14
  0.495999992      -8.85222546E-14
  0.497000009      -9.89924492E-14
  0.497999996      -1.06744068E-13
  0.499000013      -1.11319882E-13
  0.500000000      -1.12346188E-13
  0.500999987      -1.09551243E-13
  0.501999974      -1.02781112E-13
  0.503000021      -9.20122133E-14
  0.504000008      -7.73599595E-14
  0.504999995      -5.90828656E-14
  0.505999982      -3.75818388E-14
  0.507000029      -1.33942963E-14
  0.508000016       1.28168773E-14
  0.509000003       4.02794660E-14
  0.509999990       6.81328231E-14
  0.510999978       9.54531118E-14
  0.512000024       1.21282081E-13
  0.513000011       1.44658699E-13
  0.513999999       1.64652498E-13
  0.514999986       1.80397689E-13
  0.515999973       1.91126723E-13
  0.517000020       1.96202240E-13
  0.518000007       1.95145969E-13
  0.518999994       1.87663632E-13
  0.519999981       1.73664550E-13
  0.521000028       1.53275179E-13
  0.522000015       1.26845691E-13
  0.523000002       9.49489985E-14
  0.523999989       5.83720423E-14
  0.524999976       1.80990985E-14
  0.526000023      -2.47125589E-14
  0.527000010      -6.87641743E-14
  0.527999997      -1.12653444E-13
  0.528999984      -1.54917827E-13
  0.529999971      -1.94081838E-13
  0.531000018      -2.28707081E-13
  0.532000005      -2.57443155E-13
  0.532999992      -2.79077759E-13
  0.533999979      -2.92584262E-13
  0.535000026      -2.97164772E-13
  0.536000013      -2.92287326E-13
  0.537000000      -2.77715324E-13
  0.537999988      -2.53528074E-13
  0.538999975      -2.20131097E-13
  0.540000021      -1.78255820E-13
  0.541000009      -1.28947851E-13
  0.541999996      -7.35439812E-14
  0.542999983      -1.36382748E-14
  0.544000030       4.89620788E-14
  0.545000017       1.12289918E-13
  0.546000004       1.74278845E-13
  0.546999991       2.32829625E-13
  0.547999978       2.85880179E-13
  0.549000025       3.31476871E-13
  0.550000012       3.67844671E-13
  0.550999999       3.93453743E-13
  0.551999986       4.07079779E-13
  0.552999973       4.07856122E-13
  0.554000020       3.95315372E-13
  0.555000007       3.69418661E-13
  0.555999994       3.30571291E-13
  0.556999981       2.79623574E-13
  0.558000028       2.17856495E-13
  0.559000015       1.46952247E-13
  0.560000002       6.89499862E-14
  0.560999990      -1.38118548E-14
  0.561999977      -9.87653427E-14
  0.563000023      -1.83192708E-13
  0.564000010      -2.64313473E-13
  0.564999998      -3.39376178E-13
  0.565999985      -4.05751821E-13
  0.566999972      -4.61025586E-13
  0.568000019      -5.03083903E-13
  0.569000006      -5.30193348E-13
  0.569999993      -5.41068980E-13
  0.570999980      -5.34928493E-13
  0.572000027      -5.11531355E-13
  0.573000014      -4.71199848E-13
  0.574000001      -4.14821823E-13
  0.574999988      -3.43833685E-13
  0.575999975      -2.60184886E-13
  0.577000022      -1.66283694E-13
  0.578000009      -6.49263629E-14
  0.578999996       4.07885497E-14
  0.579999983       1.47557896E-13
  0.580999970       2.51980620E-13
  0.582000017       3.50669797E-13
  0.583000004       4.40366331E-13
  0.583999991       5.18050284E-13
  0.584999979       5.81046116E-13
  0.586000025       6.27117824E-13
  0.587000012       6.54550578E-13
  0.588000000       6.62215833E-13
  0.588999987       6.49617187E-13
  0.589999974       6.16915752E-13
  0.591000021       5.64932432E-13
  0.592000008       4.95128407E-13
  0.592999995       4.09562765E-13
  0.593999982       3.10829487E-13
  0.595000029       2.01974884E-13
  0.596000016       8.63989124E-14
  0.597000003      -3.22569323E-14
  0.597999990      -1.50231037E-13
  0.598999977      -2.63768309E-13
  0.600000024      -3.69247710E-13
  0.601000011      -4.63305718E-13
  0.601999998      -5.42952077E-13
  0.602999985      -6.05673010E-13
  0.603999972      -6.49518091E-13
  0.605000019      -6.73168335E-13
  0.606000006      -6.75981677E-13
  0.606999993      -6.58015309E-13
  0.607999980      -6.20023238E-13
  0.609000027      -5.63428969E-13
  0.610000014      -4.90274542E-13
  0.611000001      -4.03147486E-13
  0.611999989      -3.05088230E-13
  0.612999976      -1.99481301E-13
  0.614000022      -8.99341772E-14
  0.615000010       1.98515944E-14
  0.615999997       1.26212531E-13
  0.616999984       2.25653575E-13
  0.617999971       3.14971925E-13
  0.619000018       3.91369608E-13
  0.620000005       4.52550866E-13
  0.620999992       4.96800138E-13
  0.621999979       5.23038535E-13
  0.623000026       5.30855904E-13
  0.624000013       5.20517548E-13
  0.625000000       4.92945691E-13
  0.625999987       4.49675968E-13
  0.626999974       3.92790591E-13
  0.628000021       3.24831497E-13
  0.629000008       2.48696029E-13
  0.629999995       1.67519725E-13
  0.630999982       8.45507339E-14
  0.632000029       3.02080854E-15
  0.633000016      -7.39820938E-14
  0.634000003      -1.43634399E-13
  0.634999990      -2.03485950E-13
  0.635999978      -2.51553200E-13
  0.637000024      -2.86392573E-13
  0.638000011      -3.07151385E-13
  0.638999999      -3.13593796E-13
  0.639999986      -3.06101173E-13
  0.640999973      -2.85646479E-13
  0.642000020      -2.53743939E-13
  0.643000007      -2.12375880E-13
  0.643999994      -1.63899940E-13
  0.644999981      -1.10940188E-13
  0.646000028      -5.62671078E-14
  0.647000015      -2.67110125E-15
  0.648000002       4.71648579E-14
  0.648999989       9.07880948E-14
  0.649999976       1.26089230E-13
  0.651000023       1.51400350E-13
  0.652000010       1.65573989E-13
  0.652999997       1.68039153E-13
  0.653999984       1.58831769E-13
  0.654999971       1.38597765E-13
  0.656000018       1.08568401E-13
  0.657000005       7.05082829E-14
  0.657999992       2.66380020E-14
  0.658999979      -2.04656679E-14
  0.660000026      -6.79881295E-14
  0.661000013      -1.13008974E-13
  0.662000000      -1.52642140E-13
  0.662999988      -1.84178234E-13
  0.663999975      -2.05222829E-13
  0.665000021      -2.13824320E-13
  0.666000009      -2.08585685E-13
  0.666999996      -1.88754584E-13
  0.667999983      -1.54287173E-13
  0.669000030      -1.05882100E-13
  0.670000017      -4.49821522E-14
  0.671000004       2.62575928E-14
  0.671999991       1.05034864E-13
  0.672999978       1.87996889E-13
  0.674000025       2.71365666E-13
  0.675000012       3.51087567E-13
  0.675999999       4.23001586E-13
  0.676999986       4.83019983E-13
  0.677999973       5.27314032E-13
  0.679000020       5.52496959E-13
  0.680000007       5.55796999E-13
  0.680999994       5.35211795E-13
  0.681999981       4.89638224E-13
  0.683000028       4.18970116E-13
  0.684000015       3.24158967E-13
  0.685000002       2.07233834E-13
  0.685999990       7.12775108E-14
  0.686999977      -7.96417104E-14
  0.688000023      -2.40581860E-13
  0.689000010      -4.05879865E-13
  0.689999998      -5.69340582E-13
  0.690999985      -7.24456411E-13
  0.691999972      -8.64649498E-13
  0.693000019      -9.83528580E-13
  0.694000006      -1.07515017E-12
  0.694999993      -1.13427497E-12
  0.695999980      -1.15660812E-12
  0.697000027      -1.13901434E-12
  0.698000014      -1.07969764E-12
  0.699000001      -9.78338287E-13
  0.699999988      -8.36178566E-13
  0.700999975      -6.56053445E-13
  0.702000022      -4.42361805E-13
  0.703000009      -2.00977405E-13
  0.703999996       6.08998596E-14
  0.704999983       3.34948730E-13
  0.705999970       6.11981982E-13
  0.707000017       8.82245286E-13
  0.708000004       1.13574926E-12
  0.708999991       1.36262453E-12
  0.709999979       1.55348705E-12
  0.711000025       1.69980013E-12
  0.712000012       1.79422124E-12
  0.713000000       1.83091823E-12
  0.713999987       1.80584432E-12
  0.714999974       1.71695871E-12
  0.716000021       1.56438491E-12
  0.717000008       1.35049556E-12
  0.717999995       1.07992196E-12
  0.718999982       7.59482646E-13
  0.720000029       3.98031461E-13
  0.721000016       6.22849923E-15
  0.722000003      -4.03761334E-13
  0.722999990      -8.18633572E-13
  0.723999977      -1.22436208E-12
  0.725000024      -1.60665752E-12
  0.726000011      -1.95145007E-12
  0.726999998      -2.24538227E-12
  0.727999985      -2.47629304E-12
  0.728999972      -2.63367670E-12
  0.730000019      -2.70910074E-12
  0.731000006      -2.69656584E-12
  0.731999993      -2.59279404E-12
  0.732999980      -2.39743360E-12
  0.734000027      -2.11317010E-12
  0.735000014      -1.74573908E-12
  0.736000001      -1.30383508E-12
  0.736999989      -7.98918006E-13
  0.737999976      -2.44921298E-13
  0.739000022       3.42131515E-13
  0.740000010       9.44591302E-13
  0.740999997       1.54371524E-12
  0.741999984       2.12024929E-12
  0.742999971       2.65504437E-12
  0.744000018       3.12968445E-12
  0.745000005       3.52710829E-12
  0.745999992       3.83220062E-12
  0.746999979       4.03233740E-12
  0.748000026       4.11785970E-12
  0.749000013       4.08246267E-12
  0.750000000       3.92348654E-12
  0.750999987       3.64209444E-12
  0.751999974       3.24332792E-12
  0.753000021       2.73604056E-12
  0.754000008       2.13270547E-12
  0.754999995       1.44910201E-12
  0.755999982       7.03888391E-13
  0.757000029      -8.19268020E-14
  0.758000016      -8.85599645E-13
  0.759000003      -1.68333349E-12
  0.759999990      -2.45100901E-12
  0.760999978      -3.16493858E-12
  0.762000024      -3.80262054E-12
  0.763000011      -4.34346959E-12
  0.763999999      -4.76949773E-12
  0.764999986      -5.06592771E-12
  0.765999973      -5.22171108E-12
  0.767000020      -5.22993801E-12
  0.768000007      -5.08812263E-12
  0.768999994      -4.79835269E-12
  0.769999981      -4.36729515E-12
  0.771000028      -3.80605920E-12
  0.772000015      -3.12991538E-12
  0.773000002      -2.35787930E-12
  0.773999989      -1.51217114E-12
  0.774999976      -6.17566870E-13
  0.776000023       2.99340468E-13
  0.777000010       1.21094660E-12
  0.777999997       2.08948462E-12
  0.778999984       2.90788856E-12
  0.779999971       3.64064811E-12
  0.781000018       4.26462294E-12
  0.782000005       4.75979412E-12
  0.782999992       5.10992594E-12
  0.783999979       5.30311819E-12
  0.785000026       5.33222598E-12
  0.786000013       5.19513946E-12
  0.787000000       4.89490523E-12
  0.787999988       4.43968994E-12
  0.788999975       3.84258163E-12
  0.790000021       3.12123613E-12
  0.791000009       2.29737496E-12
  0.791999996       1.39615164E-12
  0.792999983       4.45403426E-13
  0.794000030      -5.25189267E-13
  0.795000017      -1.48500992E-12
  0.796000004      -2.40345179E-12
  0.796999991      -3.25087331E-12
  0.797999978      -3.99953508E-12
  0.799000025      -4.62448482E-12
  0.800000012      -5.10436832E-12
  0.800999999      -5.42213236E-12
  0.801999986      -5.56560527E-12
  0.802999973      -5.52792751E-12
  0.804000020      -5.30782623E-12
  0.805000007      -4.90971326E-12
  0.805999994      -4.34361228E-12
  0.806999981      -3.62490853E-12
  0.808000028      -2.77392887E-12
  0.809000015      -1.81536611E-12
  0.810000002      -7.77561229E-13
  0.810999990       3.08335388E-13
  0.811999977       1.40929716E-12
  0.813000023       2.49142157E-12
  0.814000010       3.52096824E-12
  0.814999998       4.46539984E-12
  0.815999985       5.29439860E-12
  0.816999972       5.98081957E-12
  0.818000019       6.50155797E-12
  0.819000006       6.83829555E-12
  0.819999993       6.97810993E-12
  0.820999980       6.91391605E-12
  0.822000027       6.64473641E-12
  0.823000014       6.17577994E-12
  0.824000001       5.51833058E-12
  0.824999988       4.68944805E-12
  0.825999975       3.71148511E-12
  0.827000022       2.61143602E-12
  0.828000009       1.42013788E-12
  0.828999996       1.71343733E-13
  0.829999983      -1.09929990E-12
  0.830999970      -2.35534335E-12
  0.832000017      -3.56065568E-12
  0.833000004      -4.68054501E-12
  0.833999991      -5.68284092E-12
  0.834999979      -6.53890483E-12
  0.836000025      -7.22453477E-12
  0.837000012      -7.72073811E-12
  0.838000000      -8.01434179E-12
  0.838999987      -8.09842644E-12
  0.839999974      -7.97255491E-12
  0.841000021      -7.64281260E-12
  0.842000008      -7.12162490E-12
  0.842999995      -6.42737946E-12
  0.843999982      -5.58385369E-12
  0.845000029      -4.61946714E-12
  0.846000016      -3.56638135E-12
  0.847000003      -2.45947273E-12
  0.847999990      -1.33521330E-12
  0.848999977      -2.30495256E-13
  0.850000024       8.18564671E-13
  0.851000011       1.77780186E-12
  0.851999998       2.61612238E-12
  0.852999985       3.30652584E-12
  0.853999972       3.82699991E-12
  0.855000019       4.16125381E-12
  0.856000006       4.29926797E-12