   0.00000000       0.00000000    
   1.00000005E-03   0.00000000    
   2.00000009E-03   0.00000000    
   3.00000003E-03   0.00000000    
   4.00000019E-03   0.00000000    
   4.99999989E-03   0.00000000    
   6.00000005E-03   0.00000000    
   7.00000022E-03   0.00000000    
   8.00000038E-03   0.00000000    
   8.99999961E-03   0.00000000    
   9.99999978E-03   0.00000000    
   1.09999999E-02   1.00080277E-37
   1.20000001E-02   1.31802753E-36
   1.30000003E-02   1.04830793E-35
   1.40000004E-02   5.37951559E-35
   1.49999997E-02   2.23467216E-34
   1.60000008E-02   8.09242086E-34
   1.70000009E-02   2.64015921E-33
   1.79999992E-02   7.91823280E-33
   1.89999994E-02   2.20660449E-32
   1.99999996E-02   5.75736797E-32
   2.09999997E-02   1.41572849E-31
   2.19999999E-02   3.29944290E-31
   2.30000000E-02   7.32273265E-31
   2.40000002E-02   1.55386454E-30
   2.50000004E-02   3.16311461E-30
   2.60000005E-02   6.19433312E-30
   2.70000007E-02   1.16966676E-29
   2.80000009E-02   2.13375720E-29
   2.89999992E-02   3.76619242E-29
   2.99999993E-02   6.43921436E-29
   3.09999995E-02   1.06726190E-28
   3.20000015E-02   1.71544205E-28
   3.29999998E-02   2.67364841E-28
   3.40000018E-02   4.03794420E-28
   3.50000001E-02   5.90082016E-28
   3.59999985E-02   8.32231114E-28
   3.70000005E-02   1.12793146E-27
   3.79999988E-02   1.45837453E-27
   3.90000008E-02   1.77583394E-27
   3.99999991E-02   1.98577360E-27
   4.10000011E-02   1.92224410E-27
   4.19999994E-02   1.31554285E-27
   4.30000015E-02  -2.48358103E-28
   4.39999998E-02  -3.37615057E-27
   4.50000018E-02  -8.92127574E-27
   4.60000001E-02  -1.80394709E-26
   4.69999984E-02  -3.22384187E-26
   4.80000004E-02  -5.34101234E-26
   4.89999987E-02  -8.38297524E-26
   5.00000007E-02  -1.26099108E-25
   5.09999990E-02  -1.83006707E-25
   5.20000011E-02  -2.57270591E-25
   5.29999994E-02  -3.51124602E-25
   5.40000014E-02  -4.65706008E-25
   5.49999997E-02  -6.00202108E-25
   5.60000017E-02  -7.50718938E-25
   5.70000000E-02  -9.08846945E-25
   5.79999983E-02  -1.05992081E-24
   5.90000004E-02  -1.18100110E-24
   5.99999987E-02  -1.23865312E-24
   6.10000007E-02  -1.18665723E-24
   6.19999990E-02  -9.63859738E-25
   6.30000010E-02  -4.92462395E-25
   6.40000030E-02   3.22852345E-25
   6.49999976E-02   1.59445503E-24
   6.59999996E-02   3.44935347E-24
   6.70000017E-02   6.02412763E-24
   6.80000037E-02   9.45644486E-24
   6.89999983E-02   1.38723699E-23
   7.00000003E-02   1.93687219E-23
   7.10000023E-02   2.59898461E-23
   7.19999969E-02   3.36984402E-23
   7.29999989E-02   4.23404020E-23
   7.40000010E-02   5.16042133E-23
   7.50000030E-02   6.09760576E-23
   7.59999976E-02   6.96927055E-23
   7.69999996E-02   7.66952534E-23
   7.80000016E-02   8.05879096E-23
   7.90000036E-02   7.96073050E-23
   7.99999982E-02   7.16090317E-23
   8.10000002E-02   5.40793244E-23
   8.20000023E-02   2.41808050E-23
   8.29999968E-02  -2.11581835E-23
   8.39999989E-02  -8.51009639E-23
   8.50000009E-02  -1.70697433E-22
   8.60000029E-02  -2.80608982E-22
   8.69999975E-02  -4.16758220E-22
   8.79999995E-02  -5.79902178E-22
   8.90000015E-02  -7.69133021E-22
   9.00000036E-02  -9.81316814E-22
   9.09999982E-02  -1.21048896E-21
   9.20000002E-02  -1.44723467E-21
   9.30000022E-02  -1.67809279E-21
   9.39999968E-02  -1.88503274E-21
   9.49999988E-02  -2.04506613E-21
   9.60000008E-02  -2.13006278E-21
   9.70000029E-02  -2.10685285E-21
   9.79999974E-02  -1.93769967E-21
   9.89999995E-02  -1.58123268E-21
  0.100000001      -9.93923745E-22
  0.101000004      -1.32181634E-22
  0.101999998       1.04487896E-21
  0.103000000       2.57196463E-21
  0.104000002       4.47343153E-21
  0.104999997       6.75847516E-21
  0.105999999       9.41578722E-21
  0.107000001       1.24078554E-20
  0.108000003       1.56651626E-20
  0.108999997       1.90806091E-20
  0.109999999       2.25045585E-20
  0.111000001       2.57409996E-20
  0.112000003       2.85453567E-20
  0.112999998       3.06245527E-20
  0.114000000       3.16399298E-20
  0.115000002       3.12136669E-20
  0.115999997       2.89392433E-20
  0.116999999       2.43964417E-20
  0.118000001       1.71712323E-20
  0.119000003       6.88068705E-21
  0.119999997      -6.79718301E-21
  0.120999999      -2.40890827E-20
  0.122000001      -4.50883486E-20
  0.123000003      -6.97143361E-20
  0.123999998      -9.76708566E-20
  0.125000000      -1.28405793E-19
  0.126000002      -1.61074335E-19
  0.127000004      -1.94508859E-19
  0.128000006      -2.27198545E-19
  0.128999993      -2.57282406E-19
  0.129999995      -2.82559133E-19
  0.130999997      -3.00517353E-19
  0.131999999      -3.08389450E-19
  0.133000001      -3.03231643E-19
  0.134000003      -2.82032090E-19
  0.135000005      -2.41847966E-19
  0.136000007      -1.79970733E-19
  0.136999995      -9.41176053E-20
  0.137999997       1.73550409E-20
  0.138999999       1.55222226E-19
  0.140000001       3.19153319E-19
  0.141000003       5.07477581E-19
  0.142000005       7.16965103E-19
  0.143000007       9.42637242E-19
  0.143999994       1.17762271E-18
  0.144999996       1.41307564E-18
  0.145999998       1.63817330E-18
  0.147000000       1.84021051E-18
  0.148000002       2.00480456E-18
  0.149000004       2.11622517E-18
  0.150000006       2.15785717E-18
  0.150999993       2.11280085E-18
  0.151999995       1.96460834E-18
  0.152999997       1.69814617E-18
  0.153999999       1.30056894E-18
  0.155000001       7.62377422E-19
  0.156000003       7.85271765E-20
  0.157000005      -7.50455475E-19
  0.158000007      -1.71740231E-18
  0.158999994      -2.80753641E-18
  0.159999996      -3.99767456E-18
  0.160999998      -5.25566945E-18
  0.162000000      -6.54016018E-18
  0.163000003      -7.80070195E-18
  0.164000005      -8.97833748E-18
  0.165000007      -1.00066628E-17
  0.165999994      -1.08134253E-17
  0.166999996      -1.13226798E-17
  0.167999998      -1.14574987E-17
  0.169000000      -1.11432056E-17
  0.170000002      -1.03110834E-17
  0.171000004      -8.90246269E-18
  0.172000006      -6.87306770E-18
  0.172999993      -4.19747136E-18
  0.173999995      -8.73472328E-19
  0.174999997       3.07381949E-18
  0.175999999       7.58842094E-18
  0.177000001       1.25806826E-17
  0.178000003       1.79255267E-17
  0.179000005       2.34619474E-17
  0.180000007       2.89940205E-17
  0.180999994       3.42936046E-17
  0.181999996       3.91049006E-17
  0.182999998       4.31509388E-17
  0.184000000       4.61420404E-17
  0.185000002       4.77861644E-17
  0.186000004       4.78009809E-17
  0.187000006       4.59274069E-17
  0.187999994       4.19442444E-17
  0.188999996       3.56834202E-17
  0.189999998       2.70452574E-17
  0.191000000       1.60131331E-17
  0.192000002       2.66676164E-18
  0.193000004      -1.28066758E-17
  0.194000006      -3.01043517E-17
  0.194999993      -4.88033584E-17
  0.195999995      -6.83607535E-17
  0.196999997      -8.81187566E-17
  0.197999999      -1.07315587E-16
  0.199000001      -1.25102293E-16
  0.200000003      -1.40565673E-16
  0.201000005      -1.52757270E-16
  0.202000007      -1.60727850E-16
  0.202999994      -1.63566800E-16
  0.203999996      -1.60445444E-16
  0.204999998      -1.50662822E-16
  0.206000000      -1.33692411E-16
  0.207000002      -1.09227929E-16
  0.208000004      -7.72260452E-17
  0.209000006      -3.79438401E-17
  0.209999993       8.03134307E-18
  0.210999995       5.97619265E-17
  0.211999997       1.15952127E-16
  0.213000000       1.74954020E-16
  0.214000002       2.34789036E-16
  0.215000004       2.93186240E-16
  0.216000006       3.47637753E-16
  0.216999993       3.95471239E-16
  0.217999995       4.33938579E-16
  0.218999997       4.60319102E-16
  0.219999999       4.72034891E-16
  0.221000001       4.66774552E-16
  0.222000003       4.42621725E-16
  0.223000005       3.98183306E-16
  0.224000007       3.32711842E-16
  0.224999994       2.46216464E-16
  0.225999996       1.39556182E-16
  0.226999998       1.45095685E-17
  0.228000000      -1.26185119E-16
  0.229000002      -2.78824532E-16
  0.230000004      -4.38773866E-16
  0.231000006      -6.00543077E-16
  0.231999993      -7.57907188E-16
  0.232999995      -9.04071405E-16
  0.233999997      -1.03187904E-15
  0.234999999      -1.13405917E-15
  0.236000001      -1.20350793E-15
  0.237000003      -1.23359560E-15
  0.238000005      -1.21849067E-15
  0.238999993      -1.15348883E-15
  0.239999995      -1.03533367E-15
  0.240999997      -8.62515439E-16
  0.241999999      -6.35533161E-16
  0.243000001      -3.57104855E-16
  0.244000003      -3.23116732E-17
  0.245000005       3.31337187E-16
  0.246000007       7.23930949E-16
  0.246999994       1.13328307E-15
  0.247999996       1.54516301E-15
  0.248999998       1.94363568E-15
  0.250000000       2.31150654E-15
  0.250999987       2.63086612E-15
  0.252000004       2.88372261E-15
  0.252999991       3.05270526E-15
  0.254000008       3.12181891E-15
  0.254999995       3.07722538E-15
  0.256000012       2.90802102E-15
  0.256999999       2.60698022E-15
  0.257999986       2.17123174E-15
  0.259000003       1.60283282E-15
  0.259999990       9.09209189E-16
  0.261000007       1.03428070E-16
  0.261999995      -7.95722550E-16
  0.263000011      -1.76387083E-15
  0.263999999      -2.77143124E-15
  0.264999986      -3.78421668E-15
  0.266000003      -4.76429012E-15
  0.266999990      -5.67104864E-15
  0.268000007      -6.46251749E-15
  0.268999994      -7.09682447E-15
  0.270000011      -7.53381596E-15
  0.270999998      -7.73676167E-15
  0.272000015      -7.67408886E-15
  0.273000002      -7.32108872E-15
  0.273999989      -6.66151730E-15
  0.275000006      -5.68902056E-15
  0.275999993      -4.40831775E-15
  0.277000010      -2.83606811E-15
  0.277999997      -1.00136235E-15
  0.279000014       1.05421488E-15
  0.280000001       3.27699111E-15
  0.280999988       5.60210820E-15
  0.282000005       7.95492856E-15
  0.282999992       1.02529366E-14
  0.284000009       1.24081001E-14
  0.284999996       1.43296494E-14
  0.286000013       1.59271976E-14
  0.287000000       1.71141127E-14
  0.287999988       1.78110310E-14
  0.289000005       1.79493956E-14
  0.289999992       1.74748894E-14
  0.291000009       1.63506141E-14
  0.291999996       1.45598831E-14
  0.293000013       1.21084910E-14
  0.294000000       9.02632529E-15
  0.294999987       5.36822038E-15
  0.296000004       1.21395449E-15
  0.296999991      -3.33267400E-15
  0.298000008      -8.14572273E-15
  0.298999995      -1.30799404E-14
  0.300000012      -1.79745253E-14
  0.300999999      -2.26577197E-14
  0.301999986      -2.69521581E-14
  0.303000003      -3.06807971E-14
  0.303999990      -3.36732629E-14
  0.305000007      -3.57724003E-14
  0.305999994      -3.68408070E-14
  0.307000011      -3.67670948E-14
  0.307999998      -3.54716460E-14
  0.308999985      -3.29115973E-14
  0.310000002      -2.90848244E-14
  0.310999990      -2.40327388E-14
  0.312000006      -1.78416818E-14
  0.312999994      -1.06427987E-14
  0.314000010      -2.61029466E-15
  0.314999998       6.04195547E-15
  0.316000015       1.50654263E-14
  0.317000002       2.41834937E-14
  0.317999989       3.30993845E-14
  0.319000006       4.15052954E-14
  0.319999993       4.90924236E-14
  0.321000010       5.55616141E-14
  0.321999997       6.06342233E-14
  0.323000014       6.40628636E-14
  0.324000001       6.56416246E-14
  0.324999988       6.52153231E-14
  0.326000005       6.26874786E-14
  0.326999992       5.80266358E-14
  0.328000009       5.12706705E-14
  0.328999996       4.25289043E-14
  0.330000013       3.19818262E-14
  0.331000000       1.98783183E-14
  0.331999987       6.53038220E-15
  0.333000004      -7.69455571E-15
  0.333999991      -2.23835724E-14
  0.335000008      -3.70901497E-14
  0.335999995      -5.13476929E-14
  0.337000012      -6.46842673E-14
  0.338000000      -7.66380232E-14
  0.338999987      -8.67728469E-14
  0.340000004      -9.46936418E-14
  0.340999991      -1.00060700E-13
  0.342000008      -1.02602653E-13
  0.342999995      -1.02127474E-13
  0.344000012      -9.85311347E-14
  0.344999999      -9.18034908E-14
  0.345999986      -8.20312175E-14
  0.347000003      -6.93975720E-14
  0.347999990      -5.41789649E-14
  0.349000007      -3.67384142E-14
  0.349999994      -1.75160450E-14
  0.351000011       2.98302304E-15
  0.351999998       2.42030313E-14
  0.352999985       4.55536758E-14
  0.354000002       6.64273866E-14
  0.354999989       8.62171865E-14
  0.356000006       1.04334571E-13
  0.356999993       1.20226664E-13
  0.358000010       1.33392226E-13
  0.358999997       1.43395888E-13
  0.360000014       1.49880190E-13
  0.361000001       1.52575069E-13
  0.361999989       1.51304587E-13
  0.363000005       1.45990763E-13
  0.363999993       1.36654509E-13
  0.365000010       1.23413812E-13
  0.365999997       1.06479380E-13
  0.367000014       8.61481229E-14
  0.368000001       6.27948756E-14
  0.368999988       3.68627993E-14
  0.370000005       8.85296305E-15
  0.370999992      -2.06863504E-14
  0.372000009      -5.11702565E-14
  0.372999996      -8.19873818E-14
  0.374000013      -1.12509096E-13
  0.375000000      -1.42097814E-13
  0.375999987      -1.70114194E-13
  0.377000004      -1.95923342E-13
  0.377999991      -2.18900188E-13
  0.379000008      -2.38434408E-13
  0.379999995      -2.53935246E-13
  0.381000012      -2.64836737E-13
  0.381999999      -2.70603825E-13
  0.382999986      -2.70740028E-13
  0.384000003      -2.64796919E-13
  0.384999990      -2.52385976E-13
  0.386000007      -2.33192941E-13
  0.386999995      -2.06994849E-13
  0.388000011      -1.73679376E-13
  0.388999999      -1.33266323E-13
  0.389999986      -8.59303947E-14
  0.391000003      -3.20244014E-14
  0.391999990       2.78982973E-14
  0.393000007       9.30635641E-14
  0.393999994       1.62460025E-13
  0.395000011       2.34828026E-13
  0.395999998       3.08655933E-13
  0.397000015       3.82185196E-13
  0.398000002       4.53425871E-13
  0.398999989       5.20183939E-13
  0.400000006       5.80101071E-13
  0.400999993       6.30707563E-13
  0.402000010       6.69488282E-13
  0.402999997       6.93960731E-13
  0.404000014       7.01764168E-13
  0.405000001       6.90757401E-13
  0.405999988       6.59122659E-13
  0.407000005       6.05471944E-13
  0.407999992       5.28952045E-13
  0.409000009       4.29343627E-13
  0.409999996       3.07149407E-13
  0.411000013       1.63666796E-13
  0.412000000       1.03970245E-15
  0.412999988      -1.77715048E-13
  0.414000005      -3.68710813E-13
  0.414999992      -5.67227255E-13
  0.416000009      -7.67781780E-13
  0.416999996      -9.64238346E-13
  0.418000013      -1.14995242E-12
  0.419000000      -1.31795128E-12
  0.419999987      -1.46114631E-12
  0.421000004      -1.57257291E-12
  0.421999991      -1.64565063E-12
  0.423000008      -1.67445647E-12
  0.423999995      -1.65400181E-12
  0.425000012      -1.58050244E-12
  0.425999999      -1.45163102E-12
  0.426999986      -1.26674008E-12
  0.428000003      -1.02704433E-12
  0.428999990      -7.35751141E-13
  0.430000007      -3.98129392E-13
  0.430999994      -2.15083891E-14
  0.432000011       3.84800102E-13
  0.432999998       8.09660065E-13
  0.433999985       1.24035201E-12
  0.435000002       1.66289302E-12
  0.435999990       2.06243226E-12
  0.437000006       2.42371357E-12
  0.437999994       2.73159143E-12
  0.439000010       2.97158782E-12
  0.439999998       3.13047049E-12
  0.441000015       3.19683321E-12
  0.442000002       3.16165627E-12
  0.442999989       3.01882347E-12
  0.444000006       2.76557336E-12
  0.444999993       2.40286155E-12
  0.446000010       1.93561400E-12
  0.446999997       1.37285268E-12
  0.448000014       7.27677358E-13
  0.449000001       1.70957541E-14
  0.449999988      -7.38306009E-13
  0.451000005      -1.51485064E-12
  0.451999992      -2.28640934E-12
  0.453000009      -3.02518123E-12
  0.453999996      -3.70259205E-12
  0.455000013      -4.29028991E-12
  0.456000000      -4.76120445E-12
  0.456999987      -5.09063755E-12
  0.458000004      -5.25734274E-12
  0.458999991      -5.24455522E-12
  0.460000008      -5.04092774E-12
  0.460999995      -4.64133072E-12
  0.462000012      -4.04747980E-12
  0.463000000      -3.26834805E-12
  0.463999987      -2.32033923E-12
  0.465000004      -1.22719391E-12
  0.465999991      -1.96160904E-14
  0.467000008       1.26538634E-12
  0.467999995       2.58544184E-12
  0.469000012       3.89402009E-12
  0.469999999       5.14187477E-12
  0.470999986       6.27868504E-12
  0.472000003       7.25484907E-12
  0.472999990       8.02337016E-12
  0.474000007       8.54177406E-12
  0.474999994       8.77398501E-12
  0.476000011       8.69208698E-12
  0.476999998       8.27790180E-12
  0.477999985       7.52430583E-12
  0.479000002       6.43622265E-12
  0.479999989       5.03123801E-12
  0.481000006       3.33977811E-12
  0.481999993       1.40482905E-12
  0.483000010      -7.18828642E-13
  0.483999997      -2.96587039E-12
  0.485000014      -5.26214705E-12
  0.486000001      -7.52683853E-12
  0.486999989      -9.67499171E-12
  0.488000005      -1.16203661E-11
  0.488999993      -1.32785102E-11
  0.490000010      -1.45699546E-11
  0.490999997      -1.54234282E-11
  0.492000014      -1.57789667E-11
  0.493000001      -1.55907960E-11
  0.493999988      -1.48298752E-11
  0.495000005      -1.34859788E-11
  0.495999992      -1.15692169E-11
  0.497000009      -9.11090561E-12
  0.497999996      -6.16371667E-12
  0.499000013      -2.80106125E-12
  0.500000000       8.84318443E-13
  0.500999987       4.78253938E-12
  0.501999974       8.76951463E-12
  0.503000021       1.27105739E-11
  0.504000008       1.64646699E-11
  0.504999995       1.98890557E-11
  0.505999982       2.28442820E-11
  0.507000029       2.51993565E-11
  0.508000016       2.68368782E-11
  0.509000003       2.76579731E-11
  0.509999990       2.75868269E-11
  0.510999978       2.65746349E-11
  0.512000024       2.46027972E-11
  0.513000011       2.16852057E-11
  0.513999999       1.78694871E-11
  0.514999986       1.32371059E-11
  0.515999973       7.90227172E-12
  0.517000020       2.00962077E-12
  0.518000007      -4.26930626E-12
  0.518999994      -1.07407139E-11
  0.519999981      -1.71942269E-11
  0.521000028      -2.34094306E-11
  0.522000015      -2.91630921E-11
  0.523000002      -3.42368217E-11
  0.523999989      -3.84249473E-11
  0.524999976      -4.15422974E-11
  0.526000023      -4.34316333E-11
  0.527000010      -4.39704419E-11
  0.527999997      -4.30768199E-11
  0.528999984      -4.07141855E-11
  0.529999971      -3.68946228E-11
  0.531000018      -3.16806616E-11
  0.532000005      -2.51853486E-11
  0.532999992      -1.75705527E-11
  0.533999979      -9.04349599E-12
  0.535000026       1.48469778E-13
  0.536000013       9.72471062E-12
  0.537000000       1.93796160E-11
  0.537999988       2.87921128E-11
  0.538999975       3.76361234E-11
  0.540000021       4.55916242E-11
  0.541000009       5.23559217E-11
  0.541999996       5.76547872E-11
  0.542999983       6.12530304E-11
  0.544000030       6.29640992E-11
  0.545000017       6.26583854E-11
  0.546000004       6.02698516E-11
  0.546999991       5.58006592E-11
  0.547999978       4.93236146E-11
  0.549000025       4.09822523E-11
  0.550000012       3.09884444E-11
  0.550999999       1.96175472E-11
  0.551999986       7.20118062E-12
  0.552999973      -5.88220575E-12
  0.554000020      -1.92187204E-11
  0.555000007      -3.23720252E-11
  0.555999994      -4.48975371E-11
  0.556999981      -5.63573979E-11
  0.558000028      -6.63356661E-11
  0.559000015      -7.44532561E-11
  0.560000002      -8.03820482E-11
  0.560999990      -8.38576639E-11
  0.561999977      -8.46904283E-11
  0.563000023      -8.27740584E-11
  0.564000010      -7.80917206E-11
  0.564999998      -7.07191597E-11
  0.565999985      -6.08246994E-11
  0.566999972      -4.86660469E-11
  0.568000019      -3.45839052E-11
  0.569000006      -1.89925402E-11
  0.569999993      -2.36754713E-12
  0.570999980       1.47688181E-11
  0.572000027       3.18642994E-11
  0.573000014       4.83547473E-11
  0.574000001       6.36830866E-11
  0.574999988       7.73184711E-11
  0.575999975       8.87750012E-11
  0.577000022       9.76292588E-11
  0.578000009       1.03536117E-10
  0.578999996       1.06242126E-10
  0.579999983       1.05596032E-10
  0.580999970       1.01555944E-10
  0.582000017       9.41928410E-11
  0.583000004       8.36902353E-11
  0.583999991       7.03399075E-11
  0.584999979       5.45337941E-11
  0.586000025       3.67522401E-11
  0.587000012       1.75489831E-11
  0.588000000      -2.46669785E-12
  0.588999987      -2.26500346E-11
  0.589999974      -4.23423900E-11
  0.591000021      -6.08936859E-11
  0.592000008      -7.76848447E-11
  0.592999995      -9.21494686E-11
  0.593999982      -1.03793953E-10
  0.595000029      -1.12215286E-10
  0.596000016      -1.17115900E-10
  0.597000003      -1.18314969E-10
  0.597999990      -1.15755697E-10
  0.598999977      -1.09508333E-10
  0.600000024      -9.97686933E-11
  0.601000011      -8.68521990E-11
  0.601999998      -7.11836562E-11
  0.602999985      -5.32830238E-11
  0.603999972      -3.37476748E-11
  0.605000019      -1.32317777E-11
  0.606000006       7.57651233E-12
  0.606999993       2.79792162E-11
  0.607999980       4.72931902E-11
  0.609000027       6.48743767E-11
  0.610000014       8.01407621E-11
  0.611000001       9.25931623E-11
  0.611999989       1.01833098E-10
  0.612999976       1.07577031E-10
  0.614000022       1.09666443E-10
  0.615000010       1.08073349E-10
  0.615999997       1.02900993E-10
  0.616999984       9.43796985E-11
  0.617999971       8.28580191E-11
  0.619000018       6.87894602E-11
  0.620000005       5.27152488E-11
  0.620999992       3.52438356E-11
  0.621999979       1.70278687E-11
  0.623000026      -1.26050906E-12
  0.624000013      -1.89550944E-11
  0.625000000      -3.54207913E-11
  0.625999987      -5.00775602E-11
  0.626999974      -6.24222271E-11
  0.628000021      -7.20472709E-11
  0.629000008      -7.86558804E-11
  0.629999995      -8.20726404E-11
  0.630999982      -8.22494503E-11
  0.632000029      -7.92664129E-11
  0.633000016      -7.33276009E-11
  0.634000003      -6.47519260E-11
  0.634999990      -5.39593960E-11
  0.635999978      -4.14533095E-11
  0.637000024      -2.77990946E-11
  0.638000011      -1.36006111E-11
  0.638999999       5.25103398E-13
  0.639999986       1.39736547E-11
  0.640999973       2.61786148E-11
  0.642000020       3.66352920E-11
  0.643000007       4.49219967E-11
  0.643999994       5.07178466E-11
  0.644999981       5.38164131E-11
  0.646000028       5.41345406E-11
  0.647000015       5.17159787E-11
  0.648000002       4.67295924E-11
  0.648999989       3.94621766E-11
  0.649999976       3.03061187E-11
  0.651000023       1.97423761E-11
  0.652000010       8.31940072E-12
  0.652999997      -3.37111415E-12
  0.653999984      -1.47206969E-11
  0.654999971      -2.51316797E-11
  0.656000018      -3.40447392E-11
  0.657000005      -4.09651965E-11
  0.657999992      -4.54869718E-11
  0.658999979      -4.73130632E-11
  0.660000026      -4.62716462E-11
  0.661000013      -4.23269926E-11
  0.662000000      -3.55846221E-11
  0.662999988      -2.62903380E-11
  0.663999975      -1.48230334E-11
  0.665000021      -1.68142453E-12
  0.666000009       1.25348681E-11
  0.666999996       2.71492551E-11
  0.667999983       4.14362364E-11
  0.669000030       5.46525047E-11
  0.670000017       6.60698440E-11
  0.671000004       7.50085064E-11
  0.671999991       8.08696443E-11
  0.672999978       8.31653982E-11
  0.674000025       8.15453399E-11
  0.675000012       7.58179700E-11
  0.675999999       6.59662325E-11
  0.676999986       5.21562307E-11
  0.677999973       3.47384829E-11
  0.679000020       1.42414639E-11
  0.680000007      -8.64259619E-12
  0.680999994      -3.30793587E-11
  0.681999981      -5.81208137E-11
  0.683000028      -8.27396207E-11
  0.684000015      -1.05868134E-10
  0.685000002      -1.26440719E-10
  0.685999990      -1.43437762E-10
  0.686999977      -1.55929686E-10
  0.688000023      -1.63119074E-10
  0.689000010      -1.64379371E-10
  0.689999998      -1.59288291E-10
  0.690999985      -1.47654472E-10
  0.691999972      -1.29536076E-10
  0.693000019      -1.05250322E-10
  0.694000006      -7.53731938E-11
  0.694999993      -4.07289757E-11
  0.695999980      -2.36968778E-12
  0.697000027       3.84552078E-11
  0.698000014       8.03379863E-11
  0.699000001       1.21759533E-10
  0.699999988       1.61142433E-10
  0.700999975       1.96908378E-10
  0.702000022       2.27538002E-10
  0.703000009       2.51630827E-10
  0.703999996       2.67963068E-10
  0.704999983       2.75541062E-10
  0.705999970       2.73648271E-10
  0.707000017       2.61883626E-10
  0.708000004       2.40189646E-10
  0.708999991       2.08868922E-10
  0.709999979       1.68587838E-10
  0.711000025       1.20367119E-10
  0.712000012       6.55590027E-11
  0.713000000       5.81143467E-12
  0.713999987      -5.69798098E-11
  0.714999974      -1.20729718E-10
  0.716000021      -1.83231610E-10
  0.717000008      -2.42231429E-10
  0.717999995      -2.95506397E-10
  0.718999982      -3.40945217E-10
  0.720000029      -3.76627035E-10
  0.721000016      -4.00896372E-10
  0.722000003      -4.12431006E-10
  0.722999990      -4.10300349E-10
  0.723999977      -3.94011934E-10
  0.725000024      -3.63543973E-10
  0.726000011      -3.19362425E-10
  0.726999998      -2.62421501E-10
  0.727999985      -1.94147184E-10
  0.728999972      -1.16403852E-10
  0.730000019      -3.14445900E-11
  0.731000006       5.81533606E-11
  0.731999993       1.49566221E-10
  0.732999980       2.39812087E-10
  0.734000027       3.25847266E-10
  0.735000014       4.04667494E-10
  0.736000001       4.73410533E-10
  0.736999989       5.29456867E-10
  0.737999976       5.70524739E-10
  0.739000022       5.94756300E-10
  0.740000010       6.00791861E-10
  0.740999997       5.87829008E-10
  0.741999984       5.55664570E-10
  0.742999971       5.04717601E-10
  0.744000018       4.36031988E-10
  0.745000005       3.51258272E-10
  0.745999992       2.52614873E-10
  0.746999979       1.42829554E-10
  0.748000026       2.50625284E-11
  0.749000013      -9.71864048E-11
  0.750000000      -2.20183927E-10
  0.750999987      -3.40079326E-10
  0.751999974      -4.53027005E-10
  0.753000021      -5.55311241E-10
  0.754000008      -6.43469222E-10
  0.754999995      -7.14408477E-10
  0.755999982      -7.65514374E-10
  0.757000029      -7.94743993E-10
  0.758000016      -8.00703281E-10
  0.759000003      -7.82704679E-10
  0.759999990      -7.40802641E-10
  0.760999978      -6.75805856E-10
  0.762000024      -5.89265414E-10
  0.763000011      -4.83438567E-10
  0.763999999      -3.61229241E-10
  0.764999986      -2.26106786E-10
  0.765999973      -8.20051874E-11
  0.767000020       6.67941605E-11
  0.768000007       2.15792717E-10
  0.768999994       3.60413921E-10
  0.769999981       4.96146846E-10
  0.771000028       6.18689933E-10
  0.772000015       7.24090010E-10
  0.773000002       8.08872136E-10
  0.773999989       8.70156169E-10
  0.774999976       9.05755748E-10
  0.776000023       9.14256726E-10
  0.777000010       8.95072017E-10
  0.777999997       8.48470905E-10
  0.778999984       7.75581710E-10
  0.779999971       6.78367085E-10
  0.781000018       5.59572888E-10
  0.782000005       4.22651497E-10
  0.782999992       2.71661943E-10
  0.783999979       1.11149853E-10
  0.785000026      -5.39894796E-11
  0.786000013      -2.18660520E-10
  0.787000000      -3.77724879E-10
  0.787999988      -5.26161836E-10
  0.788999975      -6.59226840E-10
  0.790000021      -7.72603259E-10
  0.791000009      -8.62542149E-10
  0.791999996      -9.25985677E-10
  0.792999983      -9.60670432E-10
  0.794000030      -9.65206692E-10
  0.795000017      -9.39131217E-10
  0.796000004      -8.82931617E-10
  0.796999991      -7.98041577E-10
  0.797999978      -6.86805834E-10
  0.799000025      -5.52416779E-10
  0.800000012      -3.98823835E-10
  0.800999999      -2.30618385E-10
  0.801999986      -5.28974572E-11
  0.802999973       1.28889677E-10
  0.804000020       3.09107406E-10
  0.805000007       4.82107132E-10
  0.805999994       6.42402520E-10
  0.806999981       7.84841858E-10
  0.808000028       9.04771147E-10
  0.809000015       9.98183647E-10
  0.810000002       1.06185061E-09
  0.810999990       1.09342913E-09
  0.811999977       1.09154319E-09
  0.813000023       1.05583564E-09
  0.814000010       9.86989268E-10
  0.814999998       8.86715312E-10
  0.815999985       7.57709895E-10
  0.816999972       6.03579575E-10
  0.818000019       4.28737906E-10
  0.819000006       2.38275899E-10
  0.819999993       3.78101300E-11
  0.820999980      -1.66686748E-10
  0.822000027      -3.69068220E-10
  0.823000014      -5.63203095E-10
  0.824000001      -7.43165918E-10
  0.824999988      -9.03422726E-10
  0.825999975      -1.03900599E-09
  0.827000022      -1.14567356E-09
  0.828000009      -1.22004618E-09
  0.828999996      -1.25971888E-09
  0.829999983      -1.26334343E-09
  0.830999970      -1.23067767E-09
  0.832000017      -1.16260057E-09
  0.833000004      -1.06109244E-09
  0.833999991      -9.29179789E-10
  0.834999979      -7.70846997E-10
  0.836000025      -5.90916982E-10
  0.837000012      -3.94904109E-10
  0.838000000      -1.88844190E-10
  0.838999987       2.08935438E-11
  0.839999974       2.27806551E-10
  0.841000021       4.25464941E-10
  0.842000008       6.07716710E-10
  0.842999995       7.68885733E-10
  0.843999982       9.03956021E-10
  0.845000029       1.00873587E-09
  0.846000016       1.07999709E-09
  0.847000003       1.11558407E-09
  0.847999990       1.11448872E-09
  0.848999977       1.07688891E-09
  0.850000024       1.00414854E-09
  0.851000011       8.98778829E-10
  0.851999998       7.64361907E-10
  0.852999985       6.05438699E-10
  0.853999972       4.27364033E-10
  0.855000019       2.36134168E-10
  0.856000006       3.81915957E-11