   0.00000000       0.00000000    
   1.00000005E-03   0.00000000    
   2.00000009E-03   0.00000000    
   3.00000003E-03   0.00000000    
   4.00000019E-03   0.00000000    
   4.99999989E-03   0.00000000    
   6.00000005E-03   0.00000000    
   7.00000022E-03   0.00000000    
   8.00000038E-03   0.00000000    
   8.99999961E-03   0.00000000    
   9.99999978E-03   0.00000000    
   1.09999999E-02   0.00000000    
   1.20000001E-02   0.00000000    
   1.30000003E-02   0.00000000    
   1.40000004E-02   0.00000000    
   1.49999997E-02   0.00000000    
   1.60000008E-02   0.00000000    
   1.70000009E-02   0.00000000    
   1.79999992E-02   0.00000000    
   1.89999994E-02   0.00000000    
   1.99999996E-02   0.00000000    
   2.09999997E-02   0.00000000    
   2.19999999E-02   0.00000000    
   2.30000000E-02  -1.62468856E-38
   2.40000002E-02  -6.62856717E-38
   2.50000004E-02  -1.58087890E-37
   2.60000005E-02  -3.20410593E-37
   2.70000007E-02  -5.92838844E-37
   2.80000009E-02  -1.03389675E-36
   2.89999992E-02  -1.70322003E-36
   2.99999993E-02  -2.65473532E-36
   3.09999995E-02  -3.89560758E-36
   3.20000015E-02  -5.30475511E-36
   3.29999998E-02  -6.49915932E-36
   3.40000018E-02  -6.62073230E-36
   3.50000001E-02  -4.01252995E-36
   3.59999985E-02   4.22676243E-36
   3.70000005E-02   2.28190832E-35
   3.79999988E-02   5.89884647E-35
   3.90000008E-02   1.23160343E-34
   3.99999991E-02   2.29524019E-34
   4.10000011E-02   3.96165014E-34
   4.19999994E-02   6.44331433E-34
   4.30000015E-02   9.96201799E-34
   4.39999998E-02   1.47030962E-33
   4.50000018E-02   2.07357203E-33
   4.60000001E-02   2.78870919E-33
   4.69999984E-02   3.55579731E-33
   4.80000004E-02   4.24685024E-33
   4.89999987E-02   4.63279919E-33
   5.00000007E-02   4.34315481E-33
   5.09999990E-02   2.82013897E-33
   5.20000011E-02  -7.28705846E-34
   5.29999994E-02  -7.37237437E-33
   5.40000014E-02  -1.84817863E-32
   5.49999997E-02  -3.57230852E-32
   5.60000017E-02  -6.09980240E-32
   5.70000000E-02  -9.63053017E-32
   5.79999983E-02  -1.43492078E-31
   5.90000004E-02  -2.03861706E-31
   5.99999987E-02  -2.77603805E-31
   6.10000007E-02  -3.63017341E-31
   6.19999990E-02  -4.55508199E-31
   6.30000010E-02  -5.46362862E-31
   6.40000030E-02  -6.21329732E-31
   6.49999976E-02  -6.59082473E-31
   6.59999996E-02  -6.29695538E-31
   6.70000017E-02  -4.93331234E-31
   6.80000037E-02  -1.99418244E-31
   6.89999983E-02   3.13309940E-31
   7.00000003E-02   1.11545950E-30
   7.10000023E-02   2.28376434E-30
   7.19999969E-02   3.89542089E-30
   7.29999989E-02   6.01935072E-30
   7.40000010E-02   8.70381006E-30
   7.50000030E-02   1.19598813E-29
   7.59999976E-02   1.57406029E-29
   7.69999996E-02   1.99158460E-29
   7.80000016E-02   2.42435204E-29
   7.90000036E-02   2.83383800E-29
   7.99999982E-02   3.16404531E-29
   8.10000002E-02   3.33861220E-29
   8.20000023E-02   3.25859161E-29
   8.29999968E-02   2.80142279E-29
   8.39999989E-02   1.82172043E-29
   8.50000009E-02   1.54609857E-30
   8.60000029E-02  -2.37760686E-29
   8.69999975E-02  -5.95464076E-29
   8.79999995E-02  -1.07425026E-28
   8.90000015E-02  -1.68722429E-28
   9.00000036E-02  -2.44127750E-28
   9.09999982E-02  -3.33377342E-28
   9.20000002E-02  -4.34868578E-28
   9.30000022E-02  -5.45230430E-28
   9.39999968E-02  -6.58870119E-28
   9.49999988E-02  -7.67524442E-28
   9.60000008E-02  -8.59855401E-28
   9.70000029E-02  -9.21139744E-28
   9.79999974E-02  -9.33112962E-28
   9.89999995E-02  -8.74038720E-28
  0.100000001      -7.19080178E-28
  0.101000004      -4.41054713E-28
  0.101999998      -1.16516896E-29
  0.103000000       5.96816127E-28
  0.104000002       1.40907159E-27
  0.104999997       2.44391535E-27
  0.105999999       3.71065648E-27
  0.107000001       5.20499169E-27
  0.108000003       6.90444113E-27
  0.108999997       8.76353514E-27
  0.109999999       1.07090017E-26
  0.111000001       1.26353161E-26
  0.112000003       1.44010241E-26
  0.112999998       1.58263632E-26
  0.114000000       1.66927544E-26
  0.115000002       1.67447730E-26
  0.115999997       1.56952644E-26
  0.116999999       1.32342033E-26
  0.118000001       9.04186284E-27
  0.119000003       2.80670008E-27
  0.119999997      -5.75178593E-27
  0.120999999      -1.68552674E-26
  0.122000001      -3.06342176E-26
  0.123000003      -4.70917266E-26
  0.123999998      -6.60646973E-26
  0.125000000      -8.71841307E-26
  0.126000002      -1.09836777E-25
  0.127000004      -1.33130890E-25
  0.128000006      -1.55869325E-25
  0.128999993      -1.76533672E-25
  0.129999995      -1.93283346E-25
  0.130999997      -2.03973706E-25
  0.131999999      -2.06197073E-25
  0.133000001      -1.97350356E-25
  0.134000003      -1.74732050E-25
  0.135000005      -1.35670419E-25
  0.136000007      -7.76835152E-26
  0.136999995       1.33055798E-27
  0.137999997       1.02876213E-25
  0.138999999       2.27621771E-25
  0.140000001       3.75147906E-25
  0.141000003       5.43694128E-25
  0.142000005       7.29917070E-25
  0.143000007       9.28676936E-25
  0.143999994       1.13286993E-24
  0.144999996       1.33332688E-24
  0.145999998       1.51879814E-24
  0.147000000       1.67604524E-24
  0.148000002       1.79005812E-24
  0.149000004       1.84441340E-24
  0.150000006       1.82178571E-24
  0.150999993       1.70461738E-24
  0.151999995       1.47594584E-24
  0.152999997       1.12037773E-24
  0.153999999       6.25189820E-25
  0.155000001      -1.84727620E-26
  0.156000003      -8.14344120E-25
  0.157000005      -1.75978184E-24
  0.158000007      -2.84457168E-24
  0.158999994      -4.04986161E-24
  0.159999996      -5.34730430E-24
  0.160999998      -6.69848616E-24
  0.162000000      -8.05472502E-24
  0.163000003      -9.35731107E-24
  0.164000005      -1.05382532E-23
  0.165000007      -1.15215857E-23
  0.165999994      -1.22252693E-23
  0.166999996      -1.25636867E-23
  0.167999998      -1.24507132E-23
  0.169000000      -1.18033163E-23
  0.170000002      -1.05455880E-23
  0.171000004      -8.61309496E-24
  0.172000006      -5.95738960E-24
  0.172999993      -2.55050366E-24
  0.173999995       1.61078465E-24
  0.174999997       6.50112894E-24
  0.175999999       1.20634661E-23
  0.177000001       1.82067551E-23
  0.178000003       2.48048161E-23
  0.179000005       3.16964091E-23
  0.180000007       3.86867138E-23
  0.180999994       4.55502265E-23
  0.181999996       5.20350860E-23
  0.182999998       5.78687597E-23
  0.184000000       6.27648723E-23
  0.185000002       6.64310244E-23
  0.186000004       6.85771363E-23
  0.187000006       6.89240836E-23
  0.187999994       6.72121861E-23
  0.188999996       6.32090199E-23
  0.189999998       5.67162844E-23
  0.191000000       4.75752672E-23
  0.192000002       3.56707471E-23
  0.193000004       2.09330962E-23
  0.194000006       3.33870981E-24
  0.194999993      -1.70910659E-23
  0.195999995      -4.02920426E-23
  0.196999997      -6.61596563E-23
  0.197999999      -9.45509622E-23
  0.199000001      -1.25285071E-22
  0.200000003      -1.58140825E-22
  0.201000005      -1.92850528E-22
  0.202000007      -2.29088388E-22
  0.202999994      -2.66452778E-22
  0.203999996      -3.04441290E-22
  0.204999998      -3.42418493E-22
  0.206000000      -3.79576391E-22
  0.207000002      -4.14888532E-22
  0.208000004      -4.47059769E-22
  0.209000006      -4.74474061E-22
  0.209999993      -4.95144690E-22
  0.210999995      -5.06671046E-22
  0.211999997      -5.06208332E-22
  0.213000000      -4.90456812E-22
  0.214000002      -4.55677765E-22
  0.215000004      -3.97744274E-22
  0.216000006      -3.12234276E-22
  0.216999993      -1.94572870E-22
  0.217999995      -4.02301928E-23
  0.218999997       1.55021126E-22
  0.219999999       3.94787194E-22
  0.221000001       6.81674474E-22
  0.222000003       1.01685670E-21
  0.223000005       1.39959788E-21
  0.224000007       1.82674457E-21
  0.224999994       2.29221159E-21
  0.225999996       2.78648068E-21
  0.226999998       3.29615076E-21
  0.228000000       3.80356952E-21
  0.229000002       4.28658928E-21
  0.230000004       4.71849025E-21
  0.231000006       5.06811259E-21
  0.231999993       5.30024217E-21
  0.232999995       5.37628745E-21
  0.233999997       5.25528159E-21
  0.234999999       4.89523427E-21
  0.236000001       4.25484380E-21
  0.237000003       3.29556228E-21
  0.238000005       1.98399835E-21
  0.238999993       2.94607085E-22
  0.239999995      -1.78739715E-21
  0.240999997      -4.26299565E-21
  0.241999999      -7.11630670E-21
  0.243000001      -1.03116513E-20
  0.244000003      -1.37909119E-20
  0.245000005      -1.74713583E-20
  0.246000007      -2.12441339E-20
  0.246999994      -2.49736247E-20
  0.247999996      -2.84978778E-20
  0.248999998      -3.16302880E-20
  0.250000000      -3.41627079E-20
  0.250999987      -3.58701057E-20
  0.252000004      -3.65168866E-20
  0.252999991      -3.58648744E-20
  0.254000008      -3.36829109E-20
  0.254999995      -2.97580132E-20
  0.256000012      -2.39077815E-20
  0.256999999      -1.59938247E-20
  0.257999986      -5.93576447E-21
  0.259000003       6.27467264E-21
  0.259999990       2.05600766E-20
  0.261000007       3.67449525E-20
  0.261999995       5.45452589E-20
  0.263000011       7.35606161E-20
  0.263999999       9.32700554E-20
  0.264999986       1.13031995E-19
  0.266000003       1.32089267E-19
  0.266999990       1.49579729E-19
  0.268000007       1.64552978E-19
  0.268999994       1.75993571E-19
  0.270000011       1.82850678E-19
  0.270999998       1.84074169E-19
  0.272000015       1.78656459E-19
  0.273000002       1.65679611E-19
  0.273999989       1.44366243E-19
  0.275000006       1.14133076E-19
  0.275999993       7.46451468E-20
  0.277000010       2.58686406E-20
  0.277999997      -3.18799964E-20
  0.279000014      -9.78912226E-20
  0.280000001      -1.71028613E-19
  0.280999988      -2.49706621E-19
  0.282000005      -3.31882879E-19
  0.282999992      -4.15067030E-19
  0.284000009      -4.96348693E-19
  0.284999996      -5.72445793E-19
  0.286000013      -6.39774521E-19
  0.287000000      -6.94541478E-19
  0.287999988      -7.32856949E-19
  0.289000005      -7.50868548E-19
  0.289999992      -7.44912124E-19
  0.291000009      -7.11677351E-19
  0.291999996      -6.48382680E-19
  0.293000013      -5.52954420E-19
  0.294000000      -4.24203912E-19
  0.294999987      -2.61995242E-19
  0.296000004      -6.73956519E-20
  0.296999991       1.57199084E-19
  0.298000008       4.07972716E-19
  0.298999995       6.79638061E-19
  0.300000012       9.65435167E-19
  0.300999999       1.25718466E-18
  0.301999986       1.54540107E-18
  0.303000003       1.81947061E-18
  0.303999990       2.06789239E-18
  0.305000007       2.27858522E-18
  0.305999994       2.43925347E-18
  0.307000011       2.53780728E-18
  0.307999998       2.56282826E-18
  0.308999985       2.50406659E-18
  0.310000002       2.35295682E-18
  0.310999990       2.10313400E-18
  0.312000006       1.75093167E-18
  0.312999994       1.29584005E-18
  0.314000010       7.40902780E-19
  0.314999998       9.30309291E-20
  0.316000015      -6.36787986E-19
  0.317000002      -1.43340526E-18
  0.317999989      -2.27756799E-18
  0.319000006      -3.14613224E-18
  0.319999993      -4.01244098E-18
  0.321000010      -4.84687142E-18
  0.321999997      -5.61755311E-18
  0.323000014      -6.29124374E-18
  0.324000001      -6.83435234E-18
  0.324999988      -7.21408449E-18
  0.326000005      -7.39968562E-18
  0.326999992      -7.36373966E-18
  0.328000009      -7.08348921E-18
  0.328999996      -6.54212638E-18
  0.330000013      -5.73000087E-18
  0.331000000      -4.64570399E-18
  0.331999987      -3.29696387E-18
  0.333000004      -1.70130693E-18
  0.333999991       1.13564311E-19
  0.335000008       2.10971712E-18
  0.335999995       4.23929526E-18
  0.337000012       6.44520646E-18
  0.338000000       8.66220890E-18
  0.338999987       1.08183867E-17
  0.340000004       1.28370077E-17
  0.340999991       1.46387261E-17
  0.342000008       1.61440840E-17
  0.342999995       1.72762461E-17
  0.344000012       1.79639012E-17
  0.344999999       1.81442183E-17
  0.345999986       1.77657881E-17
  0.347000003       1.67914041E-17
  0.347999990       1.52006035E-17
  0.349000007       1.29918236E-17
  0.349999994       1.01840889E-17
  0.351000011       6.81810692E-18
  0.351999998       2.95669630E-18
  0.352999985      -1.31553367E-18
  0.354000002      -5.89330245E-18
  0.354999989      -1.06526015E-17
  0.356000006      -1.54534577E-17
  0.356999993      -2.01434857E-17
  0.358000010      -2.45621688E-17
  0.358999997      -2.85457614E-17
  0.360000014      -3.19326987E-17
  0.361000001      -3.45693403E-17
  0.361999989      -3.63158891E-17
  0.363000005      -3.70522453E-17
  0.363999993      -3.66836338E-17
  0.365000010      -3.51457065E-17
  0.365999997      -3.24089794E-17
  0.367000014      -2.84823166E-17
  0.368000001      -2.34153060E-17
  0.368999988      -1.72993509E-17
  0.370000005      -1.02673322E-17
  0.370999992      -2.49175214E-18
  0.372000009       5.81867050E-18
  0.372999996       1.44239504E-17
  0.374000013       2.30592544E-17
  0.375000000       3.14426472E-17
  0.375999987       3.92839918E-17
  0.377000004       4.62947148E-17
  0.377999991       5.21981804E-17
  0.379000008       5.67402821E-17
  0.379999995       5.96999078E-17
  0.381000012       6.08988433E-17
  0.381999999       6.02107349E-17
  0.382999986       5.75686671E-17
  0.384000003       5.29710615E-17
  0.384999990       4.64854461E-17
  0.386000007       3.82499069E-17
  0.386999995       2.84719703E-17
  0.388000011       1.74247945E-17
  0.388999999       5.44066343E-18
  0.389999986      -7.09817415E-18
  0.391000003      -1.97711072E-17
  0.391999990      -3.21329360E-17
  0.393000007      -4.37294159E-17
  0.393999994      -5.41140696E-17
  0.395000011      -6.28657001E-17
  0.395999998      -6.96059846E-17
  0.397000015      -7.40164124E-17
  0.398000002      -7.58539180E-17
  0.398999989      -7.49644275E-17
  0.400000006      -7.12937639E-17
  0.400999993      -6.48951579E-17
  0.402000010      -5.59329935E-17
  0.402999997      -4.46822949E-17
  0.404000014      -3.15237076E-17
  0.405000001      -1.69339389E-17
  0.405999988      -1.47168904E-18
  0.407000005       1.42406438E-17
  0.407999992       2.95390002E-17
  0.409000009       4.37428196E-17
  0.409999996       5.61824910E-17
  0.411000013       6.62281297E-17
  0.412000000       7.33186028E-17
  0.412999988       7.69896171E-17
  0.414000005       7.68996464E-17
  0.414999992       7.28525097E-17
  0.416000009       6.48154243E-17
  0.416999996       5.29314330E-17
  0.418000013       3.75253562E-17
  0.419000000       1.91025269E-17
  0.419999987      -1.66015335E-18
  0.421000004      -2.39310167E-17
  0.421999991      -4.67481686E-17
  0.423000008      -6.90513104E-17
  0.423999995      -8.97200723E-17
  0.425000012      -1.07617740E-16
  0.425999999      -1.21638960E-16
  0.426999986      -1.30759798E-16
  0.428000003      -1.34088201E-16
  0.428999990      -1.30912846E-16
  0.430000007      -1.20748199E-16
  0.430999994      -1.03373668E-16
  0.432000011      -7.88648687E-17
  0.432999998      -4.76149314E-17
  0.433999985      -1.03443518E-17
  0.435000002       3.19019309E-17
  0.435999990       7.77711308E-17
  0.437000006       1.25633211E-16
  0.437999994       1.73625422E-16
  0.439000010       2.19709878E-16
  0.439999998       2.61743054E-16
  0.441000015       2.97555104E-16
  0.442000002       3.25036797E-16
  0.442999989       3.42230851E-16
  0.444000006       3.47424751E-16
  0.444999993       3.39240772E-16
  0.446000010       3.16720230E-16
  0.446999997       2.79397338E-16
  0.448000014       2.27359419E-16
  0.449000001       1.61289857E-16
  0.449999988       8.24905403E-17
  0.451000005      -7.11831600E-18
  0.451999992      -1.05023006E-16
  0.453000009      -2.08166685E-16
  0.453999996      -3.13025128E-16
  0.455000013      -4.15706962E-16
  0.456000000      -5.12076309E-16
  0.456999987      -5.97894723E-16
  0.458000004      -6.68978310E-16
  0.458999991      -7.21365127E-16
  0.460000008      -7.51486943E-16
  0.460999995      -7.56339436E-16
  0.462000012      -7.33643347E-16
  0.463000000      -6.81990272E-16
  0.463999987      -6.00966382E-16
  0.465000004      -4.91246657E-16
  0.465999991      -3.54655183E-16
  0.467000008      -1.94185334E-16
  0.467999995      -1.39770147E-17
  0.469000012       1.80752000E-16
  0.469999999       3.83821042E-16
  0.470999986       5.88247018E-16
  0.472000003       7.86447592E-16
  0.472999990       9.70482811E-16
  0.474000007       1.13232783E-15
  0.474999994       1.26417010E-15
  0.476000011       1.35872047E-15
  0.476999998       1.40952783E-15
  0.477999985       1.41128543E-15
  0.479000002       1.36011733E-15
  0.479999989       1.25383259E-15
  0.481000006       1.09213432E-15
  0.481999993       8.76774021E-16
  0.483000010       6.11641009E-16
  0.483999997       3.02778174E-16
  0.485000014      -4.16803738E-17
  0.486000001      -4.11654254E-16
  0.486999989      -7.95344085E-16
  0.488000005      -1.17953848E-15
  0.488999993      -1.54999544E-15
  0.490000010      -1.89188875E-15
  0.490999997      -2.19030798E-15
  0.492000014      -2.43079736E-15
  0.493000001      -2.59991617E-15
  0.493999988      -2.68580172E-15
  0.495000005      -2.67871523E-15
  0.495999992      -2.57154925E-15
  0.497000009      -2.36027446E-15
  0.497999996      -2.04430788E-15
  0.499000013      -1.62678226E-15
  0.500000000      -1.11470097E-15
  0.500999987      -5.18964964E-16
  0.501999974       1.45737445E-16
  0.503000021       8.61182633E-16
  0.504000008       1.60600623E-15
  0.504999995       2.35623560E-15
  0.505999982       3.08594919E-15
  0.507000029       3.76804936E-15
  0.508000016       4.37512592E-15
  0.509000003       4.88038743E-15
  0.509999990       5.25863338E-15
  0.510999978       5.48723105E-15
  0.512000024       5.54706673E-15
  0.513000011       5.42343761E-15
  0.513999999       5.10684422E-15
  0.514999986       4.59365618E-15
  0.515999973       3.88661703E-15
  0.517000020       2.99516208E-15
  0.518000007       1.93552661E-15
  0.518999994       7.30629656E-16
  0.519999981      -5.90276085E-16
  0.521000028      -1.99218952E-15
  0.522000015      -3.43517558E-15
  0.523000002      -4.87539205E-15
  0.523999989      -6.26630782E-15
  0.524999976      -7.56007907E-15
  0.526000023      -8.70904877E-15
  0.527000010      -9.66732255E-15
  0.527999997      -1.03923726E-14
  0.528999984      -1.08466160E-14
  0.529999971      -1.09989142E-14
  0.531000018      -1.08259417E-14
  0.532000005      -1.03133664E-14
  0.532999992      -9.45679421E-15
  0.533999979      -8.26243709E-15
  0.535000026      -6.74746785E-15
  0.536000013      -4.94003167E-15
  0.537000000      -2.87890109E-15
  0.537999988      -6.12769839E-16
  0.538999975       1.80081280E-15
  0.540000021       4.29684313E-15
  0.541000009       6.80457100E-15
  0.541999996       9.24947104E-15
  0.542999983       1.15554259E-14
  0.544000030       1.36470552E-14
  0.545000017       1.54521188E-14
  0.546000004       1.69039248E-14
  0.546999991       1.79436645E-14
  0.547999978       1.85225777E-14
  0.549000025       1.86038962E-14
  0.550000012       1.81644657E-14
  0.550999999       1.71960123E-14
  0.551999986       1.57059610E-14
  0.552999973       1.37178036E-14
  0.554000020       1.12709507E-14
  0.555000007       8.42007585E-15
  0.555999994       5.23394872E-15
  0.556999981       1.79377798E-15
  0.558000028      -1.80889963E-15
  0.559000015      -5.47472969E-15
  0.560000002      -9.09938357E-15
  0.560999990      -1.25766469E-14
  0.561999977      -1.58016707E-14
  0.563000023      -1.86742694E-14
  0.564000010      -2.11021826E-14
  0.564999998      -2.30041646E-14
  0.565999985      -2.43128187E-14
  0.566999972      -2.49770670E-14
  0.568000019      -2.49641633E-14
  0.569000006      -2.42611785E-14
  0.569999993      -2.28758798E-14
  0.570999980      -2.08369834E-14
  0.572000027      -1.81937307E-14
  0.573000014      -1.50147940E-14
  0.574000001      -1.13865436E-14
  0.574999988      -7.41068702E-15
  0.575999975      -3.20137182E-15
  0.577000022       1.11818058E-15
  0.578000009       5.41941166E-15
  0.578999996       9.57241336E-15
  0.579999983       1.34500472E-14
  0.580999970       1.69320565E-14
  0.582000017       1.99090436E-14
  0.583000004       2.22861687E-14
  0.583999991       2.39864603E-14
  0.584999979       2.49535940E-14
  0.586000025       2.51540596E-14
  0.587000012       2.45786312E-14
  0.588000000       2.32430550E-14
  0.588999987       2.11879498E-14
  0.589999974       1.84778747E-14
  0.591000021       1.51996149E-14
  0.592000008       1.14596883E-14
  0.592999995       7.38117216E-15
  0.593999982       3.09992290E-15
  0.595000029      -1.23968672E-15
  0.596000016      -5.48938760E-15
  0.597000003      -9.50184281E-15
  0.597999990      -1.31355320E-14
  0.598999977      -1.62595276E-14
  0.600000024      -1.87580088E-14
  0.601000011      -2.05343538E-14
  0.601999998      -2.15146843E-14
  0.602999985      -2.16507127E-14
  0.603999972      -2.09218171E-14
  0.605000019      -1.93362341E-14
  0.606000006      -1.69313467E-14
  0.606999993      -1.37730217E-14
  0.607999980      -9.95401695E-15
  0.609000027      -5.59149318E-15
  0.610000014      -8.23696713E-16
  0.611000001       4.19408364E-15
  0.611999989       9.29417320E-15
  0.612999976       1.43016346E-14
  0.614000022       1.90396981E-14
  0.615000010       2.33353325E-14
  0.615999997       2.70247742E-14
  0.616999984       2.99588506E-14
  0.617999971       3.20079216E-14
  0.619000018       3.30662655E-14
  0.620000005       3.30557962E-14
  0.620999992       3.19289747E-14
  0.621999979       2.96708086E-14
  0.623000026       2.62999021E-14
  0.624000013       2.18684950E-14
  0.625000000       1.64614890E-14
  0.625999987       1.01945142E-14
  0.626999974       3.21105807E-15
  0.628000021      -4.32122879E-15
  0.629000008      -1.22149495E-14
  0.629999995      -2.02679636E-14
  0.630999982      -2.82688183E-14
  0.632000029      -3.60024442E-14
  0.633000016      -4.32559635E-14
  0.634000003      -4.98244194E-14
  0.634999990      -5.55162436E-14
  0.635999978      -6.01583670E-14
  0.637000024      -6.36007563E-14
  0.638000011      -6.57203038E-14
  0.638999999      -6.64239781E-14
  0.639999986      -6.56511182E-14
  0.640999973      -6.33748764E-14
  0.642000020      -5.96027337E-14
  0.643000007      -5.43761847E-14
  0.643999994      -4.77695344E-14
  0.644999981      -3.98879504E-14
  0.646000028      -3.08647998E-14
  0.647000015      -2.08583913E-14
  0.648000002      -1.00482434E-14
  0.648999989       1.36900535E-15
  0.649999976       1.31839221E-14
  0.651000023       2.51787049E-14
  0.652000010       3.71315968E-14
  0.652999997       4.88211766E-14
  0.653999984       6.00304176E-14
  0.654999971       7.05504652E-14
  0.656000018       8.01840148E-14
  0.657000005       8.87483040E-14
  0.657999992       9.60776733E-14
  0.658999979       1.02025688E-13
  0.660000026       1.06466803E-13
  0.661000013       1.09297682E-13
  0.662000000       1.10438100E-13
  0.662999988       1.09831571E-13
  0.663999975       1.07445689E-13
  0.665000021       1.03272283E-13
  0.666000009       9.73273789E-14
  0.666999996       8.96510784E-14
  0.667999983       8.03073293E-14
  0.669000030       6.93836264E-14
  0.670000017       5.69906671E-14
  0.671000004       4.32619300E-14
  0.671999991       2.83531421E-14
  0.672999978       1.24416189E-14
  0.674000025      -4.27456320E-15
  0.675000012      -2.15776680E-14
  0.675999999      -3.92317099E-14
  0.676999986      -5.69842228E-14
  0.677999973      -7.45685252E-14
  0.679000020      -9.17064412E-14
  0.680000007      -1.08111565E-13
  0.680999994      -1.23493148E-13
  0.681999981      -1.37560455E-13
  0.683000028      -1.50027831E-13
  0.684000015      -1.60620080E-13
  0.685000002      -1.69078347E-13
  0.685999990      -1.75166332E-13
  0.686999977      -1.78676599E-13
  0.688000023      -1.79436869E-13
  0.689000010      -1.77316197E-13
  0.689999998      -1.72230638E-13
  0.690999985      -1.64148372E-13
  0.691999972      -1.53093928E-13
  0.693000019      -1.39151345E-13
  0.694000006      -1.22466205E-13
  0.694999993      -1.03246005E-13
  0.695999980      -8.17591844E-14
  0.697000027      -5.83323063E-14
  0.698000014      -3.33456000E-14
  0.699000001      -7.22671062E-15
  0.699999988       1.95572013E-14
  0.700999975       4.65089359E-14
  0.702000022       7.31121096E-14
  0.703000009       9.88431545E-14
  0.703999996       1.23184218E-13
  0.704999983       1.45636527E-13
  0.705999970       1.65733909E-13
  0.707000017       1.83056031E-13
  0.708000004       1.97241000E-13
  0.708999991       2.07996719E-13
  0.709999979       2.15110753E-13
  0.711000025       2.18458335E-13
  0.712000012       2.18007903E-13
  0.713000000       2.13824211E-13
  0.713999987       2.06068506E-13
  0.714999974       1.94995780E-13
  0.716000021       1.80949060E-13
  0.717000008       1.64350643E-13
  0.717999995       1.45690494E-13
  0.718999982       1.25512163E-13
  0.720000029       1.04396336E-13
  0.721000016       8.29426656E-14
  0.722000003       6.17502604E-14
  0.722999990       4.13975596E-14
  0.723999977       2.24220633E-14
  0.725000024       5.30077792E-15
  0.726000011      -9.56806723E-15
  0.726999998      -2.18812802E-14
  0.727999985      -3.14443126E-14
  0.728999972      -3.81816398E-14
  0.730000019      -4.21433416E-14
  0.731000006      -4.35075593E-14
  0.731999993      -4.25784591E-14
  0.732999980      -3.97795641E-14
  0.734000027      -3.56424722E-14
  0.735000014      -3.07910774E-14
  0.736000001      -2.59215782E-14
  0.736999989      -2.17787858E-14
  0.737999976      -1.91292887E-14
  0.739000022      -1.87322420E-14
  0.740000010      -2.13086300E-14
  0.740999997      -2.75099682E-14
  0.741999984      -3.78874754E-14
  0.742999971      -5.28627570E-14
  0.744000018      -7.27011089E-14
  0.745000005      -9.74884642E-14
  0.745999992      -1.27112933E-13
  0.746999979      -1.61251925E-13
  0.748000026      -1.99365440E-13
  0.749000013      -2.40696270E-13
  0.750000000      -2.84277376E-13
  0.750999987      -3.28946858E-13
  0.751999974      -3.73370172E-13
  0.753000021      -4.16069468E-13
  0.754000008      -4.55459672E-13
  0.754999995      -4.89890192E-13
  0.755999982      -5.17691901E-13
  0.757000029      -5.37227326E-13
  0.758000016      -5.46943729E-13
  0.759000003      -5.45426497E-13
  0.759999990      -5.31452378E-13
  0.760999978      -5.04039952E-13
  0.762000024      -4.62496252E-13
  0.763000011      -4.06457610E-13
  0.763999999      -3.35923563E-13
  0.764999986      -2.51281933E-13
  0.765999973      -1.53324429E-13
  0.767000020      -4.32513217E-14
  0.768000007       7.73350568E-14
  0.768999994       2.06448641E-13
  0.769999981       3.41749713E-13
  0.771000028       4.80586437E-13
  0.772000015       6.20047199E-13
  0.773000002       7.57023025E-13
  0.773999989       8.88277787E-13
  0.774999976       1.01052619E-12
  0.776000023       1.12051590E-12
  0.777000010       1.21511286E-12
  0.777999997       1.29138746E-12
  0.778999984       1.34669836E-12
  0.779999971       1.37877210E-12
  0.781000018       1.38577658E-12
  0.782000005       1.36638530E-12
  0.782999992       1.31983064E-12
  0.783999979       1.24594410E-12
  0.785000026       1.14518226E-12
  0.786000013       1.01863743E-12
  0.787000000       8.68031287E-13
  0.787999988       6.95692310E-13
  0.788999975       5.04516134E-13
  0.790000021       2.97910351E-13
  0.791000009       7.97239878E-14
  0.791999996      -1.45836278E-13
  0.792999983      -3.74301366E-13
  0.794000030      -6.01044225E-13
  0.795000017      -8.21390644E-13
  0.796000004      -1.03073366E-12
  0.796999991      -1.22464831E-12
  0.797999978      -1.39900418E-12
  0.799000025      -1.55007170E-12
  0.800000012      -1.67461921E-12
  0.800999999      -1.76999886E-12
  0.801999986      -1.83421789E-12
  0.802999973      -1.86599325E-12
  0.804000020      -1.86478697E-12
  0.805000007      -1.83082412E-12
  0.805999994      -1.76508699E-12
  0.806999981      -1.66929144E-12
  0.808000028      -1.54584104E-12
  0.809000015      -1.39776320E-12
  0.810000002      -1.22862712E-12
  0.810999990      -1.04244651E-12
  0.811999977      -8.43568921E-13
  0.813000023      -6.36556183E-13
  0.814000010      -4.26057844E-13
  0.814999998      -2.16682127E-13
  0.815999985      -1.28681067E-14
  0.816999972       1.81237485E-13
  0.818000019       3.61894623E-13
  0.819000006       5.25872206E-13
  0.819999993       6.70535025E-13
  0.820999980       7.93912570E-13
  0.822000027       8.94747275E-13
  0.823000014       9.72520784E-13
  0.824000001       1.02745720E-12
  0.824999988       1.06050249E-12
  0.825999975       1.07328100E-12
  0.827000022       1.06803032E-12
  0.828000009       1.04751505E-12
  0.828999996       1.01492404E-12
  0.829999983       9.73751895E-13
  0.830999970       9.27669833E-13
  0.832000017       8.80389240E-13
  0.833000004       8.35522678E-13
  0.833999991       7.96445971E-13
  0.834999979       7.66166427E-13
  0.836000025       7.47201780E-13
  0.837000012       7.41473072E-13
  0.838000000       7.50216350E-13
  0.838999987       7.73915329E-13
  0.839999974       8.12258464E-13
  0.841000021       8.64122142E-13
  0.842000008       9.27581146E-13
  0.842999995       9.99946220E-13
  0.843999982       1.07782967E-12
  0.845000029       1.15723577E-12
  0.846000016       1.23367505E-12
  0.847000003       1.30229952E-12
  0.847999990       1.35805408E-12
  0.848999977       1.39584123E-12
  0.850000024       1.41069318E-12
  0.851000011       1.39794719E-12
  0.851999998       1.35341803E-12
  0.852999985       1.27356274E-12
  0.853999972       1.15563223E-12
  0.855000019       9.97805029E-13
  0.856000006       7.99298290E-13