   0.00000000       0.00000000    
   1.00000005E-03   0.00000000    
   2.00000009E-03  -9.87860575E-12
   3.00000003E-03  -4.73315588E-11
   4.00000019E-03  -1.33753453E-10
   4.99999989E-03  -2.88532948E-10
   6.00000005E-03  -5.22441868E-10
   7.00000022E-03  -8.30953584E-10
   8.00000038E-03  -1.18839261E-09
   8.99999961E-03  -1.54382629E-09
   9.99999978E-03  -1.81949089E-09
   1.09999999E-02  -1.91240690E-09
   1.20000001E-02  -1.69950520E-09
   1.30000003E-02  -1.04643960E-09
   1.40000004E-02   1.80342963E-10
   1.49999997E-02   2.09871209E-09
   1.60000008E-02   4.79425832E-09
   1.70000009E-02   8.30308977E-09
   1.79999992E-02   1.25956241E-08
   1.89999994E-02   1.75627441E-08
   1.99999996E-02   2.30060540E-08
   2.09999997E-02   2.86336697E-08
   2.19999999E-02   3.40625625E-08
   2.30000000E-02   3.88286630E-08
   2.40000002E-02   4.24048032E-08
   2.50000004E-02   4.42265495E-08
   2.60000005E-02   4.37250876E-08
   2.70000007E-02   4.03661531E-08
   2.80000009E-02   3.36925510E-08
   2.89999992E-02   2.33687256E-08
   2.99999993E-02   9.22381105E-09
   3.09999995E-02  -8.70927686E-09
   3.20000015E-02  -3.01619423E-08
   3.29999998E-02  -5.46082788E-08
   3.40000018E-02  -8.12561254E-08
   3.50000001E-02  -1.09053225E-07
   3.59999985E-02  -1.36709673E-07
   3.70000005E-02  -1.62737194E-07
   3.79999988E-02  -1.85505598E-07
   3.90000008E-02  -2.03313903E-07
   3.99999991E-02  -2.14474639E-07
   4.10000011E-02  -2.17407674E-07
   4.19999994E-02  -2.10738719E-07
   4.30000015E-02  -1.93398776E-07
   4.39999998E-02  -1.64717562E-07
   4.50000018E-02  -1.24506229E-07
   4.60000001E-02  -7.31233811E-08
   4.69999984E-02  -1.15195249E-08
   4.80000004E-02   5.87453322E-08
   4.89999987E-02   1.35513389E-07
   5.00000007E-02   2.16073019E-07
   5.09999990E-02   2.97234578E-07
   5.20000011E-02   3.75439100E-07
   5.29999994E-02   4.46894148E-07
   5.40000014E-02   5.07734910E-07
   5.49999997E-02   5.54202757E-07
   5.60000017E-02   5.82834787E-07
   5.70000000E-02   5.90655191E-07
   5.79999983E-02   5.75358285E-07
   5.90000004E-02   5.35475522E-07
   5.99999987E-02   4.70514181E-07
   6.10000007E-02   3.81061369E-07
   6.19999990E-02   2.68844303E-07
   6.30000010E-02   1.36739871E-07
   6.40000030E-02  -1.12680913E-08
   6.49999976E-02  -1.70188130E-07
   6.59999996E-02  -3.34174530E-07
   6.70000017E-02  -4.96732071E-07
   6.80000037E-02  -6.50964353E-07
   6.89999983E-02  -7.89858973E-07
   7.00000003E-02  -9.06596199E-07
   7.10000023E-02  -9.94869538E-07
   7.19999969E-02  -1.04920196E-06
   7.29999989E-02  -1.06524510E-06
   7.40000010E-02  -1.04004528E-06
   7.50000030E-02  -9.72258817E-07
   7.59999976E-02  -8.62309946E-07
   7.69999996E-02  -7.12475526E-07
   7.80000016E-02  -5.26889096E-07
   7.90000036E-02  -3.11461861E-07
   7.99999982E-02  -7.37184820E-08
   8.10000002E-02   1.77450985E-07
   8.20000023E-02   4.32112273E-07
   8.29999968E-02   6.79674201E-07
   8.39999989E-02   9.09325138E-07
   8.50000009E-02   1.11050053E-06
   8.60000029E-02   1.27336489E-06
   8.69999975E-02   1.38928283E-06
   8.79999995E-02   1.45126023E-06
   8.90000015E-02   1.45433069E-06
   9.00000036E-02   1.39587121E-06
   9.09999982E-02   1.27582564E-06
   9.20000002E-02   1.09682321E-06
   9.30000022E-02   8.64181629E-07
   9.39999968E-02   5.85790417E-07
   9.49999988E-02   2.71872949E-07
   9.60000008E-02  -6.53661303E-08
   9.70000029E-02  -4.12196727E-07
   9.79999974E-02  -7.53907784E-07
   9.89999995E-02  -1.07541655E-06
  0.100000001      -1.36191989E-06
  0.101000004      -1.59956130E-06
  0.101999998      -1.77607751E-06
  0.103000000      -1.88140427E-06
  0.104000002      -1.90820469E-06
  0.104999997      -1.85229476E-06
  0.105999999      -1.71294846E-06
  0.107000001      -1.49305583E-06
  0.108000003      -1.19912761E-06
  0.108999997      -8.41140036E-07
  0.109999999      -4.32215927E-07
  0.111000001       1.18404850E-08
  0.112000003       4.73147708E-07
  0.112999998       9.32462683E-07
  0.114000000       1.36998176E-06
  0.115000002       1.76619221E-06
  0.115999997       2.10273970E-06
  0.116999999       2.36327196E-06
  0.118000001       2.53421967E-06
  0.119000003       2.60548018E-06
  0.119999997       2.57096576E-06
  0.120999999       2.42899364E-06
  0.122000001       2.18248761E-06
  0.123000003       1.83898555E-06
  0.123999998       1.41044018E-06
  0.125000000       9.12815665E-07
  0.126000002       3.65499460E-07
  0.127000004      -2.09459088E-07
  0.128000006      -7.88247974E-07
  0.128999993      -1.34629533E-06
  0.129999995      -1.85933186E-06
  0.130999997      -2.30447063E-06
  0.131999999      -2.66125335E-06
  0.133000001      -2.91261335E-06
  0.134000003      -3.04571677E-06
  0.135000005      -3.05263234E-06
  0.136000007      -2.93080120E-06
  0.136999995      -2.68328063E-06
  0.137999997      -2.31873832E-06
  0.138999999      -1.85120018E-06
  0.140000001      -1.29954913E-06
  0.141000003      -6.86795488E-07
  0.142000005      -3.91447017E-08
  0.143000007       6.15100078E-07
  0.143999994       1.24675762E-06
  0.144999996       1.82705412E-06
  0.145999998       2.32892239E-06
  0.147000000       2.72825673E-06
  0.148000002       3.00505963E-06
  0.149000004       3.14443560E-06
  0.150000006       3.13737587E-06
  0.150999993       2.98129794E-06
  0.151999995       2.68030544E-06
  0.152999997       2.24516066E-06
  0.153999999       1.69294537E-06
  0.155000001       1.04643971E-06
  0.156000003       3.33223966E-07
  0.157000005      -4.15453513E-07
  0.158000007      -1.16600256E-06
  0.158999994      -1.88394927E-06
  0.159999996      -2.53547114E-06
  0.160999998      -3.08893414E-06
  0.162000000      -3.51637118E-06
  0.163000003      -3.79482390E-06
  0.164000005      -3.90748937E-06
  0.165000007      -3.84462373E-06
  0.165999994      -3.60413719E-06
  0.166999996      -3.19186574E-06
  0.167999998      -2.62149069E-06
  0.169000000      -1.91410140E-06
  0.170000002      -1.09742018E-06
  0.171000004      -2.04706339E-07
  0.172000006       7.26607311E-07
  0.172999993       1.65649851E-06
  0.173999995       2.54408928E-06
  0.174999997       3.34945639E-06
  0.175999999       4.03543299E-06
  0.177000001       4.56933503E-06
  0.178000003       4.92451090E-06
  0.179000005       5.08166340E-06
  0.180000007       5.02986495E-06
  0.180999994       4.76721971E-06
  0.181999996       4.30113141E-06
  0.182999998       3.64816606E-06
  0.184000000       2.83349527E-06
  0.185000002       1.88994534E-06
  0.186000004       8.56681140E-07
  0.187000006      -2.22417313E-07
  0.187999994      -1.30062722E-06
  0.188999996      -2.33041533E-06
  0.189999998      -3.26555210E-06
  0.191000000      -4.06320623E-06
  0.192000002      -4.68593271E-06
  0.193000004      -5.10344989E-06
  0.194000006      -5.29414456E-06
  0.194999993      -5.24620100E-06
  0.195999995      -4.95832637E-06
  0.196999997      -4.44001080E-06
  0.197999999      -3.71131182E-06
  0.199000001      -2.80215386E-06
  0.200000003      -1.75117771E-06
  0.201000005      -6.04171930E-07
  0.202000007       5.87846159E-07
  0.202999994       1.77082563E-06
  0.203999996       2.89005789E-06
  0.204999998       3.89262232E-06
  0.206000000       4.72981219E-06
  0.207000002       5.35941126E-06
  0.208000004       5.74773094E-06
  0.209000006       5.87130171E-06
  0.209999993       5.71814599E-06
  0.210999995       5.28855935E-06
  0.211999997       4.59535613E-06
  0.213000000       3.66356107E-06
  0.214000002       2.52955215E-06
  0.215000004       1.23967175E-06
  0.216000006      -1.51634524E-07
  0.216999993      -1.58407238E-06
  0.217999995      -2.99407316E-06
  0.218999997      -4.31755689E-06
  0.219999999      -5.49278138E-06
  0.221000001      -6.46314174E-06
  0.222000003      -7.17980311E-06
  0.223000005      -7.60404328E-06
  0.224000007      -7.70919178E-06
  0.224999994      -7.48207185E-06
  0.225999996      -6.92388585E-06
  0.226999998      -6.05046716E-06
  0.228000000      -4.89191052E-06
  0.229000002      -3.49153993E-06
  0.230000004      -1.90429455E-06
  0.231000006      -1.94561736E-07
  0.231999993       1.56645137E-06
  0.232999995       3.30369585E-06
  0.233999997       4.94148344E-06
  0.234999999       6.40678672E-06
  0.236000001       7.63247954E-06
  0.237000003       8.56038878E-06
  0.238000005       9.14400971E-06
  0.238999993       9.35075877E-06
  0.239999995       9.16367298E-06
  0.240999997       8.58245130E-06
  0.241999999       7.62378613E-06
  0.243000001       6.32097363E-06
  0.244000003       4.72278498E-06
  0.245000005       2.89165109E-06
  0.246000007       9.01213866E-07
  0.246999994      -1.16663841E-06
  0.247999996      -3.22515803E-06
  0.248999998      -5.18638490E-06
  0.250000000      -6.96490770E-06
  0.250999987      -8.48158197E-06
  0.252000004      -9.66703919E-06
  0.252999991      -1.04648252E-05
  0.254000008      -1.08340337E-05
  0.254999995      -1.07513233E-05
  0.256000012      -1.02121867E-05
  0.256999999      -9.23144944E-06
  0.257999986      -7.84293752E-06
  0.259000003      -6.09831659E-06
  0.259999990      -4.06516028E-06
  0.261000007      -1.82429847E-06
  0.261999995       5.33437230E-07
  0.263000011       2.91094375E-06
  0.263999999       5.20889398E-06
  0.264999986       7.32993612E-06
  0.266000003       9.18286150E-06
  0.266999990       1.06865673E-05
  0.268000007       1.17736254E-05
  0.268999994       1.23933269E-05
  0.270000011       1.25140332E-05
  0.270999998       1.21247422E-05
  0.272000015       1.12358048E-05
  0.273000002       9.87870135E-06
  0.273999989       8.10495840E-06
  0.275000006       5.98415045E-06
  0.275999993       3.60114768E-06
  0.277000010       1.05265281E-06
  0.277999997      -1.55679015E-06
  0.279000014      -4.11916017E-06
  0.280000001      -6.52752487E-06
  0.280999988      -8.68058942E-06
  0.282000005      -1.04870542E-05
  0.282999992      -1.18695880E-05
  0.284000009      -1.27682224E-05
  0.284999996      -1.31430470E-05
  0.286000013      -1.29760592E-05
  0.287000000      -1.22720967E-05
  0.287999988      -1.10587816E-05
  0.289000005      -9.38550693E-06
  0.289999992      -7.32147964E-06
  0.291000009      -4.95287168E-06
  0.291999996      -2.37925360E-06
  0.293000013       2.90588872E-07
  0.294000000       2.94326537E-06
  0.294999987       5.46561705E-06
  0.296000004       7.74958244E-06
  0.296999991       9.69685789E-06
  0.298000008       1.12232037E-05
  0.298999995       1.22621286E-05
  0.300000012       1.27678732E-05
  0.300999999       1.27174881E-05
  0.301999986       1.21119456E-05
  0.303000003       1.09762477E-05
  0.303999990       9.35846128E-06
  0.305000007       7.32777835E-06
  0.305999994       4.97163046E-06
  0.307000011       2.39200972E-06
  0.307999998      -2.98871782E-07
  0.308999985      -2.98338523E-06
  0.310000002      -5.54355620E-06
  0.310999990      -7.86618421E-06
  0.312000006      -9.84777489E-06
  0.312999994      -1.13990936E-05
  0.314000010      -1.24491280E-05
  0.314999998      -1.29482660E-05
  0.316000015      -1.28705888E-05
  0.317000002      -1.22151405E-05
  0.317999989      -1.10061110E-05
  0.319000006      -9.29195721E-06
  0.319999993      -7.14342832E-06
  0.321000010      -4.65065477E-06
  0.321999997      -1.91934737E-06
  0.323000014       9.33683225E-07
  0.324000001       3.78552500E-06
  0.324999988       6.51244136E-06
  0.326000005       8.99523002E-06
  0.326999992       1.11244035E-05
  0.328000009       1.28049833E-05
  0.328999996       1.39606873E-05
  0.330000013       1.45373451E-05
  0.331000000       1.45053391E-05
  0.331999987       1.38610485E-05
  0.333000004       1.26271134E-05
  0.333999991       1.08516388E-05
  0.335000008       8.60621731E-06
  0.335999995       5.98298084E-06
  0.337000012       3.09073403E-06
  0.338000000       5.03394055E-08
  0.338999987      -3.01041632E-06
  0.340000004      -5.96229438E-06
  0.340999991      -8.68015832E-06
  0.342000008      -1.10483616E-05
  0.342999995      -1.29657592E-05
  0.344000012      -1.43501047E-05
  0.344999999      -1.51416380E-05
  0.345999986      -1.53057354E-05
  0.347000003      -1.48344534E-05
  0.347999990      -1.37469506E-05
  0.349000007      -1.20887244E-05
  0.349999994      -9.92970581E-06
  0.351000011      -7.36130642E-06
  0.351999998      -4.49250911E-06
  0.352999985      -1.44521653E-06
  0.354000002       1.65099959E-06
  0.354999989       4.66446818E-06
  0.356000006       7.46709065E-06
  0.356999993       9.93989488E-06
  0.358000010       1.19781562E-05
  0.358999997       1.34959500E-05
  0.360000014       1.44298756E-05
  0.361000001       1.47418004E-05
  0.361999989       1.44205251E-05
  0.363000005       1.34822567E-05
  0.363999993       1.19699280E-05
  0.365000010       9.95130449E-06
  0.365999997       7.51604239E-06
  0.367000014       4.77177264E-06
  0.368000001       1.83942029E-06
  0.368999988      -1.15210628E-06
  0.370000005      -4.07152174E-06
  0.370999992      -6.79092363E-06
  0.372000009      -9.19138256E-06
  0.372999996      -1.11681557E-05
  0.374000013      -1.26352679E-05
  0.375000000      -1.35293030E-05
  0.375999987      -1.38121686E-05
  0.377000004      -1.34727879E-05
  0.377999991      -1.25275774E-05
  0.379000008      -1.10197316E-05
  0.379999995      -9.01733256E-06
  0.381000012      -6.61035801E-06
  0.381999999      -3.90670539E-06
  0.382999986      -1.02745707E-06
  0.384000003       1.89848970E-06
  0.384999990       4.74006947E-06
  0.386000007       7.36989705E-06
  0.386999995       9.66987409E-06
  0.388000011       1.15364592E-05
  0.388999999       1.28852498E-05
  0.389999986       1.36547769E-05
  0.391000003       1.38092591E-05
  0.391999990       1.33402500E-05
  0.393000007       1.22670572E-05
  0.393999994       1.06359767E-05
  0.395000011       8.51828008E-06
  0.395999998       6.00713702E-06
  0.397000015       3.21354264E-06
  0.398000002       2.61460173E-07
  0.398999989      -2.71763861E-06
  0.400000006      -5.59058435E-06
  0.400999993      -8.22836591E-06
  0.402000010      -1.05118879E-05
  0.402999997      -1.23372529E-05
  0.404000014      -1.36204189E-05
  0.405000001      -1.43009975E-05
  0.405999988      -1.43449834E-05
  0.407000005      -1.37463803E-05
  0.407999992      -1.25275837E-05
  0.409000009      -1.07384794E-05
  0.409999996      -8.45438353E-06
  0.411000013      -5.77282754E-06
  0.412000000      -2.80933455E-06
  0.412999988       3.07550209E-07
  0.414000005       3.44187515E-06
  0.414999992       6.45622731E-06
  0.416000009       9.21772607E-06
  0.416999996       1.16039037E-05
  0.418000013       1.35080954E-05
  0.419000000       1.48441850E-05
  0.419999987       1.55504495E-05
  0.421000004       1.55923681E-05
  0.421999991       1.49642374E-05
  0.423000008       1.36895233E-05
  0.423999995       1.18199769E-05
  0.425000012       9.43346549E-06
  0.425999999       6.63068113E-06
  0.426999986       3.53086489E-06
  0.428000003       2.66638295E-07
  0.428999990      -3.02167200E-06
  0.430000007      -6.19213733E-06
  0.430999994      -9.10737890E-06
  0.432000011      -1.16405445E-05
  0.432999998      -1.36808640E-05
  0.433999985      -1.51384893E-05
  0.435000002      -1.59484644E-05
  0.435999990      -1.60736072E-05
  0.437000006      -1.55062153E-05
  0.437999994      -1.42684767E-05
  0.439000010      -1.24115486E-05
  0.439999998      -1.00134930E-05
  0.441000015      -7.17592047E-06
  0.442000002      -4.01964144E-06
  0.442999989      -6.79515040E-07
  0.444000006       2.70132932E-06
  0.444999993       5.97769213E-06
  0.446000010       9.00854411E-06
  0.446999997       1.16631409E-05
  0.448000014       1.38266578E-05
  0.449000001       1.54051777E-05
  0.449999988       1.63297627E-05
  0.451000005       1.65594702E-05
  0.451999992       1.60831678E-05
  0.453000009       1.49200532E-05
  0.453999996       1.31188208E-05
  0.455000013       1.07556680E-05
  0.456000000       7.93099116E-06
  0.456999987       4.76512059E-06
  0.458000004       1.39316739E-06
  0.458999991      -2.04079333E-06
  0.460000008      -5.38984932E-06
  0.460999995      -8.51062305E-06
  0.462000012      -1.12693724E-05
  0.463000000      -1.35477549E-05
  0.463999987      -1.52478842E-05
  0.465000004      -1.62965516E-05
  0.465999991      -1.66483205E-05
  0.467000008      -1.62874967E-05
  0.467999995      -1.52288067E-05
  0.469000012      -1.35166783E-05
  0.469999999      -1.12234311E-05
  0.470999986      -8.44608803E-06
  0.472000003      -5.30221860E-06
  0.472999990      -1.92492598E-06
  0.474000007       1.54283578E-06
  0.474999994       4.95444738E-06
  0.476000011       8.16582360E-06
  0.476999998       1.10415513E-05
  0.477999985       1.34606735E-05
  0.479000002       1.53217898E-05
  0.479999989       1.65473284E-05
  0.481000006       1.70868370E-05
  0.481999993       1.69189916E-05
  0.483000010       1.60524523E-05
  0.483999997       1.45254444E-05
  0.485000014       1.24039989E-05
  0.486000001       9.77907803E-06
  0.486999989       6.76257423E-06
  0.488000005       3.48257436E-06
  0.488999993       7.77320324E-08
  0.490000010      -3.30855005E-06
  0.490999997      -6.53430880E-06
  0.492000014      -9.46502223E-06
  0.493000001      -1.19792767E-05
  0.493999988      -1.39738504E-05
  0.495000005      -1.53680558E-05
  0.495999992      -1.61070056E-05
  0.497000009      -1.61637909E-05
  0.497999996      -1.55404632E-05
  0.499000013      -1.42678819E-05
  0.500000000      -1.24040689E-05
  0.500999987      -1.00316738E-05
  0.501999974      -7.25429391E-06
  0.503000021      -4.19194794E-06
  0.504000008      -9.75780495E-07
  0.504999995       2.25748954E-06
  0.505999982       5.37145024E-06
  0.507000029       8.23579285E-06
  0.508000016       1.07318474E-05
  0.509000003       1.27574585E-05
  0.509999990       1.42312756E-05
  0.510999978       1.50959686E-05
  0.512000024       1.53205219E-05
  0.513000011       1.49012812E-05
  0.513999999       1.38619444E-05
  0.514999986       1.22522224E-05
  0.515999973       1.01455198E-05
  0.517000020       7.63562366E-06
  0.518000007       4.83241320E-06
  0.518999994       1.85716294E-06
  0.519999981      -1.16287538E-06
  0.521000028      -4.09984568E-06
  0.522000015      -6.83082726E-06
  0.523000002      -9.24299820E-06
  0.523999989      -1.12383495E-05
  0.524999976      -1.27376734E-05
  0.526000023      -1.36837625E-05
  0.527000010      -1.40436232E-05
  0.527999997      -1.38095393E-05
  0.528999984      -1.29991340E-05
  0.529999971      -1.16543570E-05
  0.531000018      -9.83934569E-06
  0.532000005      -7.63737626E-06
  0.532999992      -5.14702833E-06
  0.533999979      -2.47789330E-06
  0.535000026       2.54477726E-07
  0.536000013       2.93340008E-06
  0.537000000       5.44627665E-06
  0.537999988       7.68932387E-06
  0.538999975       9.57188331E-06
  0.540000021       1.10201518E-05
  0.541000009       1.19802062E-05
  0.541999996       1.24199505E-05
  0.542999983       1.23301970E-05
  0.544000030       1.17248046E-05
  0.545000017       1.06396501E-05
  0.546000004       9.13070289E-06
  0.546999991       7.27138740E-06
  0.547999978       5.14909607E-06
  0.549000025       2.86107343E-06
  0.550000012       5.10127336E-07
  0.550999999      -1.80001484E-06
  0.551999986      -3.96927271E-06
  0.552999973      -5.90547052E-06
  0.554000020      -7.52823280E-06
  0.555000007      -8.77252205E-06
  0.555999994      -9.59099179E-06
  0.556999981      -9.95598020E-06
  0.558000028      -9.86033956E-06
  0.559000015      -9.31740669E-06
  0.560000002      -8.36015715E-06
  0.560999990      -7.03937349E-06
  0.561999977      -5.42116322E-06
  0.563000023      -3.58374928E-06
  0.564000010      -1.61381092E-06
  0.564999998       3.97450009E-07
  0.565999985       2.35846414E-06
  0.566999972       4.18133141E-06
  0.568000019       5.78574782E-06
  0.569000006       7.10243830E-06
  0.569999993       8.07594188E-06
  0.570999980       8.66701703E-06
  0.572000027       8.85413647E-06
  0.573000014       8.63407058E-06
  0.574000001       8.02183695E-06
  0.574999988       7.04971399E-06
  0.575999975       5.76550474E-06
  0.577000022       4.23022129E-06
  0.578000009       2.51520009E-06
  0.578999996       6.98580493E-07
  0.579999983      -1.13807891E-06
  0.580999970      -2.91358128E-06
  0.582000017      -4.55080954E-06
  0.583000004      -5.97992585E-06
  0.583999991      -7.14148837E-06
  0.584999979      -7.98885594E-06
  0.586000025      -8.49011394E-06
  0.587000012      -8.62926026E-06
  0.588000000      -8.40656139E-06
  0.588999987      -7.83836549E-06
  0.589999974      -6.95605468E-06
  0.591000021      -5.80425103E-06
  0.592000008      -4.43874842E-06
  0.592999995      -2.92378604E-06
  0.593999982      -1.32876096E-06
  0.595000029       2.74667968E-07
  0.596000016       1.81602582E-06
  0.597000003       3.22926576E-06
  0.597999990       4.45537262E-06
  0.598999977       5.44516342E-06
  0.600000024       6.16141187E-06
  0.601000011       6.57982218E-06
  0.601999998       6.69038991E-06
  0.602999985       6.49722597E-06
  0.603999972       6.01832062E-06
  0.605000019       5.28414466E-06
  0.606000006       4.33621881E-06
  0.606999993       3.22477263E-06
  0.607999980       2.00649151E-06
  0.609000027       7.41349993E-07
  0.610000014      -5.09950780E-07
  0.611000001      -1.68882661E-06
  0.611999989      -2.74179615E-06
  0.612999976      -3.62262040E-06
  0.614000022      -4.29450301E-06
  0.615000010      -4.73159844E-06
  0.615999997      -4.91990795E-06
  0.616999984      -4.85809232E-06
  0.617999971      -4.55679083E-06
  0.619000018      -4.03825788E-06
  0.620000005      -3.33488765E-06
  0.620999992      -2.48775950E-06
  0.621999979      -1.54408599E-06
  0.623000026      -5.55215649E-07
  0.624000013       4.26210164E-07
  0.625000000       1.34866718E-06
  0.625999987       2.16430317E-06
  0.626999974       2.83112649E-06
  0.628000021       3.31514229E-06
  0.629000008       3.59191245E-06
  0.629999995       3.64745483E-06
  0.630999982       3.47906575E-06
  0.632000029       3.09502025E-06
  0.633000016       2.51458437E-06
  0.634000003       1.76638753E-06
  0.634999990       8.87285921E-07
  0.635999978      -7.94671919E-08
  0.637000024      -1.08636561E-06
  0.638000011      -2.08435790E-06
  0.638999999      -3.02468288E-06
  0.639999986      -3.86173588E-06
  0.640999973      -4.55497684E-06
  0.642000020      -5.07089226E-06
  0.643000007      -5.38472659E-06
  0.643999994      -5.48149865E-06
  0.644999981      -5.35678464E-06
  0.646000028      -5.01691102E-06
  0.647000015      -4.47840011E-06
  0.648000002      -3.76734079E-06
  0.648999989      -2.91810306E-06
  0.649999976      -1.97157192E-06
  0.651000023      -9.73226520E-07
  0.652000010       2.93140623E-08
  0.652999997       9.88032866E-07
  0.653999984       1.85751560E-06
  0.654999971       2.59647027E-06
  0.656000018       3.17015156E-06
  0.657000005       3.55176417E-06
  0.657999992       3.72387672E-06
  0.658999979       3.67915163E-06
  0.660000026       3.42059070E-06
  0.661000013       2.96155008E-06
  0.662000000       2.32476714E-06
  0.662999988       1.54156874E-06
  0.663999975       6.50267168E-07
  0.665000021      -3.06056251E-07
  0.666000009      -1.28107661E-06
  0.666999996      -2.22785479E-06
  0.667999983      -3.10105156E-06
  0.669000030      -3.85899239E-06
  0.670000017      -4.46578269E-06
  0.671000004      -4.89289232E-06
  0.671999991      -5.12086717E-06
  0.672999978      -5.13987334E-06
  0.674000025      -4.95039831E-06
  0.675000012      -4.56308135E-06
  0.675999999      -3.99835017E-06
  0.676999986      -3.28553915E-06
  0.677999973      -2.46122181E-06
  0.679000020      -1.56746091E-06
  0.680000007      -6.49959361E-07
  0.680999994       2.44210952E-07
  0.681999981       1.06902189E-06
  0.683000028       1.78135474E-06
  0.684000015       2.34375943E-06
  0.685000002       2.72555326E-06
  0.685999990       2.90501248E-06
  0.686999977       2.86980935E-06
  0.688000023       2.61852824E-06
  0.689000010       2.15984528E-06
  0.689999998       1.51295467E-06
  0.690999985       7.06409367E-07
  0.691999972      -2.23176571E-07
  0.693000019      -1.23295320E-06
  0.694000006      -2.27522810E-06
  0.694999993      -3.30066405E-06
  0.695999980      -4.25974395E-06
  0.697000027      -5.10555628E-06
  0.698000014      -5.79609696E-06
  0.699000001      -6.29614078E-06
  0.699999988      -6.57912688E-06
  0.700999975      -6.62851244E-06
  0.702000022      -6.43853582E-06
  0.703000009      -6.01471902E-06
  0.703999996      -5.37395317E-06
  0.704999983      -4.54346900E-06
  0.705999970      -3.55997190E-06
  0.707000017      -2.46806576E-06
  0.708000004      -1.31810623E-06
  0.708999991      -1.64078131E-07
  0.709999979       9.38879680E-07
  0.711000025       1.93694837E-06
  0.712000012       2.78018592E-06
  0.713000000       3.42506246E-06
  0.713999987       3.83594670E-06
  0.714999974       3.98762040E-06
  0.716000021       3.86603460E-06
  0.717000008       3.46910315E-06
  0.717999995       2.80736572E-06
  0.718999982       1.90329376E-06
  0.720000029       7.90556271E-07
  0.721000016      -4.87142188E-07
  0.722000003      -1.87829380E-06
  0.722999990      -3.32517811E-06
  0.723999977      -4.76713149E-06
  0.725000024      -6.14232840E-06
  0.726000011      -7.39103143E-06
  0.726999998      -8.45809700E-06
  0.727999985      -9.29550333E-06
  0.728999972      -9.86443138E-06
  0.730000019      -1.01371097E-05
  0.731000006      -1.00980878E-05
  0.731999993      -9.74490013E-06
  0.732999980      -9.08876882E-06
  0.734000027      -8.15347539E-06
  0.735000014      -6.97511905E-06
  0.736000001      -5.60035005E-06
  0.736999989      -4.08477172E-06
  0.737999976      -2.48956258E-06
  0.739000022      -8.80762514E-07
  0.740000010       6.75396905E-07
  0.740999997       2.11389056E-06
  0.741999984       3.37457186E-06
  0.742999971       4.40443137E-06
  0.744000018       5.15957208E-06
  0.745000005       5.60773424E-06
  0.745999992       5.72881891E-06
  0.746999979       5.51669700E-06
  0.748000026       4.97868132E-06
  0.749000013       4.13581893E-06
  0.750000000       3.02134686E-06
  0.750999987       1.68015310E-06
  0.751999974       1.65875008E-07
  0.753000021      -1.46052503E-06
  0.754000008      -3.13373448E-06
  0.754999995      -4.78670017E-06
  0.755999982      -6.35393781E-06
  0.757000029      -7.77334390E-06
  0.758000016      -8.98973121E-06
  0.759000003      -9.95631854E-06
  0.759999990      -1.06376783E-05
  0.760999978      -1.10100091E-05
  0.762000024      -1.10626661E-05
  0.763000011      -1.07988317E-05
  0.763999999      -1.02346030E-05
  0.764999986      -9.39829079E-06
  0.765999973      -8.32996284E-06
  0.767000020      -7.07868776E-06
  0.768000007      -5.70071870E-06
  0.768999994      -4.25725011E-06
  0.769999981      -2.81140638E-06
  0.771000028      -1.42622503E-06
  0.772000015      -1.60843754E-07
  0.773000002       9.30865610E-07
  0.773999989       1.80330312E-06
  0.774999976       2.42044075E-06
  0.776000023       2.75776870E-06
  0.777000010       2.80293125E-06
  0.777999997       2.55608757E-06
  0.778999984       2.03030618E-06
  0.779999971       1.25005317E-06
  0.781000018       2.50871892E-07
  0.782000005      -9.23078119E-07
  0.782999992      -2.22011886E-06
  0.783999979      -3.58409375E-06
  0.785000026      -4.95618133E-06
  0.786000013      -6.27810005E-06
  0.787000000      -7.49382525E-06
  0.787999988      -8.55266535E-06
  0.788999975      -9.41113740E-06
  0.790000021      -1.00343941E-05
  0.791000009      -1.03981629E-05
  0.791999996      -1.04893443E-05
  0.792999983      -1.03064785E-05
  0.794000030      -9.85983752E-06
  0.795000017      -9.17075613E-06
  0.796000004      -8.27053736E-06
  0.796999991      -7.19930631E-06
  0.797999978      -6.00365638E-06
  0.799000025      -4.73522505E-06
  0.800000012      -3.44822183E-06
  0.800999999      -2.19666867E-06
  0.801999986      -1.03307502E-06
  0.802999973      -5.00625008E-09
  0.804000020       8.45187515E-07
  0.805000007       1.48414063E-06
  0.805999994       1.88662193E-06
  0.806999981       2.03853119E-06
  0.808000028       1.93544383E-06
  0.809000015       1.58411569E-06
  0.810000002       1.00087811E-06
  0.810999990       2.11993751E-07
  0.811999977      -7.48700018E-07
  0.813000023      -1.84089686E-06
  0.814000010      -3.01929686E-06
  0.814999998      -4.23609390E-06
  0.815999985      -5.44271870E-06
  0.816999972      -6.59216266E-06
  0.818000019      -7.64046854E-06
  0.819000006      -8.54851896E-06
  0.819999993      -9.28438476E-06
  0.820999980      -9.82328493E-06
  0.822000027      -1.01496626E-05
  0.823000014      -1.02561717E-05
  0.824000001      -1.01455498E-05
  0.824999988      -9.82839720E-06
  0.825999975      -9.32434705E-06
  0.827000022      -8.65999391E-06
  0.828000009      -7.86717192E-06
  0.828999996      -6.98280337E-06
  0.829999983      -6.04643128E-06
  0.830999970      -5.09824713E-06
  0.832000017      -4.17789397E-06
  0.833000004      -3.32268132E-06
  0.833999991      -2.56615635E-06
  0.834999979      -1.93684059E-06
  0.836000025      -1.45663444E-06
  0.837000012      -1.14087504E-06
  0.838000000      -9.97490588E-07
  0.838999987      -1.02737499E-06
  0.839999974      -1.22301560E-06
  0.841000021      -1.57119382E-06
  0.842000008      -2.05260631E-06
  0.842999995      -2.64250639E-06
  0.843999982      -3.31288766E-06
  0.845000029      -4.03336253E-06
  0.846000016      -4.77156573E-06
  0.847000003      -5.49659080E-06
  0.847999990      -6.17846263E-06
  0.848999977      -6.78980632E-06
  0.850000024      -7.30753754E-06
  0.851000011      -7.71284340E-06
  0.851999998      -7.99236295E-06
  0.852999985      -8.13809675E-06
  0.853999972      -8.14807208E-06
  0.855000019      -8.02530303E-06
  0.856000006      -7.77881905E-06