   0.00000000       0.00000000    
   1.00000005E-03   0.00000000    
   2.00000009E-03   0.00000000    
   3.00000003E-03   0.00000000    
   4.00000019E-03   0.00000000    
   4.99999989E-03   0.00000000    
   6.00000005E-03   0.00000000    
   7.00000022E-03   0.00000000    
   8.00000038E-03   0.00000000    
   8.99999961E-03   0.00000000    
   9.99999978E-03   0.00000000    
   1.09999999E-02   0.00000000    
   1.20000001E-02   0.00000000    
   1.30000003E-02   0.00000000    
   1.40000004E-02   0.00000000    
   1.49999997E-02   2.94811393E-38
   1.60000008E-02   1.51010301E-37
   1.70000009E-02   5.88870815E-37
   1.79999992E-02   1.99662637E-36
   1.89999994E-02   6.16414200E-36
   1.99999996E-02   1.76758721E-35
   2.09999997E-02   4.75338950E-35
   2.19999999E-02   1.20687534E-34
   2.30000000E-02   2.90908311E-34
   2.40000002E-02   6.68841684E-34
   2.50000004E-02   1.47267347E-33
   2.60000005E-02   3.11599528E-33
   2.70000007E-02   6.35437349E-33
   2.80000009E-02   1.25207913E-32
   2.89999992E-02   2.38900243E-32
   2.99999993E-02   4.42217066E-32
   3.09999995E-02   7.95387791E-32
   3.20000015E-02   1.39197421E-31
   3.29999998E-02   2.37289780E-31
   3.40000018E-02   3.94381764E-31
   3.50000001E-02   6.39510916E-31
   3.59999985E-02   1.01223897E-30
   3.70000005E-02   1.56434694E-30
   3.79999988E-02   2.36045942E-30
   3.90000008E-02   3.47646755E-30
   3.99999991E-02   4.99406650E-30
   4.10000011E-02   6.98904028E-30
   4.19999994E-02   9.51010063E-30
   4.30000015E-02   1.25442039E-29
   4.39999998E-02   1.59633412E-29
   4.50000018E-02   1.94470204E-29
   4.60000001E-02   2.23741872E-29
   4.69999984E-02   2.36783999E-29
   4.80000004E-02   2.16611192E-29
   4.89999987E-02   1.37602579E-29
   5.00000007E-02  -3.72470977E-30
   5.09999990E-02  -3.59433296E-29
   5.20000011E-02  -8.98234948E-29
   5.29999994E-02  -1.74389959E-28
   5.40000014E-02  -3.01026534E-28
   5.49999997E-02  -4.83616850E-28
   5.60000017E-02  -7.38475641E-28
   5.70000000E-02  -1.08395815E-27
   5.79999983E-02  -1.53960814E-27
   5.90000004E-02  -2.12468418E-27
   5.99999987E-02  -2.85588178E-27
   6.10000007E-02  -3.74406366E-27
   6.19999990E-02  -4.78981512E-27
   6.30000010E-02  -5.97767093E-27
   6.40000030E-02  -7.26891798E-27
   6.49999976E-02  -8.59296863E-27
   6.59999996E-02  -9.83744601E-27
   6.70000017E-02  -1.08372910E-26
   6.80000037E-02  -1.13634666E-26
   6.89999983E-02  -1.11120996E-26
   7.00000003E-02  -9.69526616E-27
   7.10000023E-02  -6.63499660E-27
   7.19999969E-02  -1.36247487E-27
   7.29999989E-02   6.77519274E-27
   7.40000010E-02   1.84979131E-26
   7.50000030E-02   3.45622704E-26
   7.59999976E-02   5.57148298E-26
   7.69999996E-02   8.26260986E-26
   7.80000016E-02   1.15802538E-25
   7.90000036E-02   1.55474870E-25
   7.99999982E-02   2.01461973E-25
   8.10000002E-02   2.53011531E-25
   8.20000023E-02   3.08620752E-25
   8.29999968E-02   3.65843267E-25
   8.39999989E-02   4.21091930E-25
   8.50000009E-02   4.69450632E-25
   8.60000029E-02   5.04513132E-25
   8.69999975E-02   5.18270571E-25
   8.79999995E-02   5.01073995E-25
   8.90000015E-02   4.41702153E-25
   9.00000036E-02   3.27566898E-25
   9.09999982E-02   1.45091069E-25
   9.20000002E-02  -1.19707522E-25
   9.30000022E-02  -4.80395682E-25
   9.39999968E-02  -9.49043451E-25
   9.49999988E-02  -1.53486763E-24
   9.60000008E-02  -2.24260001E-24
   9.70000029E-02  -3.07060064E-24
   9.79999974E-02  -4.00875722E-24
   9.89999995E-02  -5.03624106E-24
  0.100000001      -6.11922520E-24
  0.101000004      -7.20869694E-24
  0.101999998      -8.23854223E-24
  0.103000000      -9.12411117E-24
  0.104000002      -9.76150053E-24
  0.104999997      -1.00278334E-23
  0.105999999      -9.78281002E-24
  0.107000001      -8.87182399E-24
  0.108000003      -7.13092314E-24
  0.108999997      -4.39384914E-24
  0.109999999      -5.01349554E-25
  0.111000001       4.68715709E-24
  0.112000003       1.12795758E-23
  0.112999998       1.93349634E-23
  0.114000000       2.88455383E-23
  0.115000002       3.97174300E-23
  0.115999997       5.17509541E-23
  0.116999999       6.46214154E-23
  0.118000001       7.78617325E-23
  0.119000003       9.08483520E-23
  0.119999997       1.02792211E-22
  0.120999999       1.12736503E-22
  0.122000001       1.19563343E-22
  0.123000003       1.22011135E-22
  0.123999998       1.18704634E-22
  0.125000000       1.08199139E-22
  0.126000002       8.90401945E-23
  0.127000004       5.98393406E-23
  0.128000006       1.93658600E-23
  0.128999993      -3.33464537E-23
  0.129999995      -9.88795114E-23
  0.130999997      -1.77301398E-22
  0.131999999      -2.68031661E-22
  0.133000001      -3.69707224E-22
  0.134000003      -4.80056369E-22
  0.135000005      -5.95789054E-22
  0.136000007      -7.12513558E-22
  0.136999995      -8.24689832E-22
  0.137999997      -9.25630252E-22
  0.138999999      -1.00755950E-21
  0.140000001      -1.06174337E-21
  0.141000003      -1.07869582E-21
  0.142000005      -1.04847203E-21
  0.143000007      -9.61051394E-22
  0.143999994      -8.06811896E-22
  0.144999996      -5.77091006E-22
  0.145999998      -2.64826361E-22
  0.147000000       1.34739980E-22
  0.148000002       6.23313863E-22
  0.149000004       1.19878534E-21
  0.150000006       1.85448320E-21
  0.150999993       2.57848757E-21
  0.151999995       3.35304608E-21
  0.152999997       4.15414385E-21
  0.153999999       4.95127979E-21
  0.155000001       5.70750099E-21
  0.156000003       6.37974801E-21
  0.157000005       6.91955808E-21
  0.158000007       7.27416249E-21
  0.158999994       7.38800726E-21
  0.159999996       7.20471163E-21
  0.160999998       6.66945388E-21
  0.162000000       5.73176186E-21
  0.163000003       4.34865771E-21
  0.164000005       2.48807770E-21
  0.165000007       1.32464034E-22
  0.165999994      -2.71760295E-21
  0.166999996      -6.03988987E-21
  0.167999998      -9.78729229E-21
  0.169000000      -1.38851184E-20
  0.170000002      -1.82290832E-20
  0.171000004      -2.26842392E-20
  0.172000006      -2.70850598E-20
  0.172999993      -3.12368764E-20
  0.173999995      -3.49188479E-20
  0.174999997      -3.78886073E-20
  0.175999999      -3.98886912E-20
  0.177000001      -4.06547445E-20
  0.178000003      -3.99254814E-20
  0.179000005      -3.74542793E-20
  0.180000007      -3.30221583E-20
  0.180999994      -2.64518143E-20
  0.181999996      -1.76223285E-20
  0.182999998      -6.48397559E-21
  0.184000000       6.92745184E-21
  0.185000002       2.24774990E-20
  0.186000004       3.99218528E-20
  0.187000006       5.88978639E-20
  0.187999994       7.89196026E-20
  0.188999996       9.93772268E-20
  0.189999998       1.19541363E-19
  0.191000000       1.38573122E-19
  0.192000002       1.55540173E-19
  0.193000004       1.69439302E-19
  0.194000006       1.79225275E-19
  0.194999993       1.83846035E-19
  0.195999995       1.82283569E-19
  0.196999997       1.73599723E-19
  0.197999999       1.56985775E-19
  0.199000001       1.31814371E-19
  0.200000003       9.76919432E-20
  0.201000005       5.45096643E-20
  0.202000007       2.49060811E-21
  0.202999994      -5.77693634E-20
  0.203999996      -1.25269499E-19
  0.204999998      -1.98583382E-19
  0.206000000      -2.75852016E-19
  0.207000002      -3.54792809E-19
  0.208000004      -4.32726561E-19
  0.209000006      -5.06623672E-19
  0.209999993      -5.73170559E-19
  0.210999995      -6.28856099E-19
  0.211999997      -6.70077973E-19
  0.213000000      -6.93266689E-19
  0.214000002      -6.95025533E-19
  0.215000004      -6.72282151E-19
  0.216000006      -6.22448448E-19
  0.216999993      -5.43582774E-19
  0.217999995      -4.34548633E-19
  0.218999997      -2.95163866E-19
  0.219999999      -1.26332115E-19
  0.221000001       6.98493798E-20
  0.222000003       2.90013788E-19
  0.223000005       5.29486944E-19
  0.224000007       7.82294070E-19
  0.224999994       1.04121608E-18
  0.225999996       1.29790004E-18
  0.226999998       1.54302427E-18
  0.228000000       1.76652092E-18
  0.229000002       1.95785276E-18
  0.230000004       2.10633954E-18
  0.231000006       2.20152941E-18
  0.231999993       2.23360438E-18
  0.232999995       2.19381037E-18
  0.233999997       2.07489737E-18
  0.234999999       1.87155487E-18
  0.236000001       1.58082487E-18
  0.237000003       1.20247566E-18
  0.238000005       7.39318005E-19
  0.238999993       1.97445195E-19
  0.239999995      -4.13620240E-19
  0.240999997      -1.08088787E-18
  0.241999999      -1.78798212E-18
  0.243000001      -2.51535739E-18
  0.244000003      -3.24064735E-18
  0.245000005      -3.93915567E-18
  0.246000007      -4.58447856E-18
  0.246999994      -5.14925515E-18
  0.247999996      -5.60602594E-18
  0.248999998      -5.92818218E-18
  0.250000000      -6.09098084E-18
  0.250999987      -6.07259303E-18
  0.252000004      -5.85515082E-18
  0.252999991      -5.42575598E-18
  0.254000008      -4.77741141E-18
  0.254999995      -3.90982922E-18
  0.256000012      -2.83008287E-18
  0.256999999      -1.55305766E-18
  0.257999986      -1.01670475E-19
  0.259000003       1.49317185E-18
  0.259999990       3.19289814E-18
  0.261000007       4.95189399E-18
  0.261999995       6.71842504E-18
  0.263000011       8.43585093E-18
  0.263999999       1.00441183E-17
  0.264999986       1.14814969E-17
  0.266000003       1.26865195E-17
  0.266999990       1.36000809E-17
  0.268000007       1.41676220E-17
  0.268999994       1.43413382E-17
  0.270000011       1.40823363E-17
  0.270999998       1.33626578E-17
  0.272000015       1.21670807E-17
  0.273000002       1.04946381E-17
  0.273999989       8.35975693E-18
  0.275000006       5.79296503E-18
  0.275999993       2.84110567E-18
  0.277000010      -4.32990121E-19
  0.277999997      -3.95138926E-18
  0.279000014      -7.62251898E-18
  0.280000001      -1.13431906E-17
  0.280999988      -1.50011537E-17
  0.282000005      -1.84781263E-17
  0.282999992      -2.16532376E-17
  0.284000009      -2.44067746E-17
  0.284999996      -2.66241497E-17
  0.286000013      -2.81999304E-17
  0.287000000      -2.90418448E-17
  0.287999988      -2.90745680E-17
  0.289000005      -2.82432118E-17
  0.289999992      -2.65163251E-17
  0.291000009      -2.38883094E-17
  0.291999996      -2.03811231E-17
  0.293000013      -1.60451830E-17
  0.294000000      -1.09593829E-17
  0.294999987      -5.23019063E-18
  0.296000004       1.01019277E-18
  0.296999991       7.60660154E-18
  0.298000008       1.43845484E-17
  0.298999995       2.11546661E-17
  0.300000012       2.77178281E-17
  0.300999999       3.38708127E-17
  0.301999986       3.94123537E-17
  0.303000003       4.41493689E-17
  0.303999990       4.79032039E-17
  0.305000007       5.05156553E-17
  0.305999994       5.18545894E-17
  0.307000011       5.18189445E-17
  0.307999998       5.03429532E-17
  0.308999985       4.73993946E-17
  0.310000002       4.30018080E-17
  0.310999990       3.72054788E-17
  0.312000006       3.01072203E-17
  0.312999994       2.18438829E-17
  0.314000010       1.25896459E-17
  0.314999998       2.55214026E-18
  0.316000015      -8.03249202E-18
  0.317000002      -1.89054495E-17
  0.317999989      -2.97918561E-17
  0.319000006      -4.04078854E-17
  0.319999993      -5.04682248E-17
  0.321000010      -5.96936014E-17
  0.321999997      -6.78181694E-17
  0.323000014      -7.45966035E-17
  0.324000001      -7.98105545E-17
  0.324999988      -8.32743898E-17
  0.326000005      -8.48400773E-17
  0.326999992      -8.44010231E-17
  0.328000009      -8.18948776E-17
  0.328999996      -7.73051766E-17
  0.330000013      -7.06619634E-17
  0.331000000      -6.20412789E-17
  0.331999987      -5.15637560E-17
  0.333000004      -3.93923128E-17
  0.333999991      -2.57291204E-17
  0.335000008      -1.08120066E-17
  0.335999995       5.08961129E-18
  0.337000012       2.16790804E-17
  0.338000000       3.86370539E-17
  0.338999987       5.56261161E-17
  0.340000004       7.22954333E-17
  0.340999991       8.82853772E-17
  0.342000008       1.03232134E-16
  0.342999995       1.16772333E-16
  0.344000012       1.28547798E-16
  0.344999999       1.38210445E-16
  0.345999986       1.45427497E-16
  0.347000003       1.49887152E-16
  0.347999990       1.51304715E-16
  0.349000007       1.49429410E-16
  0.349999994       1.44051796E-16
  0.351000011       1.35011930E-16
  0.351999998       1.22208048E-16
  0.352999985       1.05605725E-16
  0.354000002       8.52472619E-17
  0.354999989       6.12609697E-17
  0.356000006       3.38699624E-17
  0.356999993       3.39996812E-18
  0.358000010      -2.97143989E-17
  0.358999997      -6.49254791E-17
  0.360000014      -1.01571168E-16
  0.361000001      -1.38876915E-16
  0.361999989      -1.75961645E-16
  0.363000005      -2.11848115E-16
  0.363999993      -2.45478248E-16
  0.365000010      -2.75733497E-16
  0.365999997      -3.01460429E-16
  0.367000014      -3.21501255E-16
  0.368000001      -3.34729183E-16
  0.368999988      -3.40087646E-16
  0.370000005      -3.36632678E-16
  0.370999992      -3.23577068E-16
  0.372000009      -3.00335251E-16
  0.372999996      -2.66566774E-16
  0.374000013      -2.22216897E-16
  0.375000000      -1.67552302E-16
  0.375999987      -1.03189848E-16
  0.377000004      -3.01164020E-17
  0.377999991       5.03020276E-17
  0.379000008       1.36323600E-16
  0.379999995       2.25847703E-16
  0.381000012       3.16446797E-16
  0.381999999       4.05413527E-16
  0.382999986       4.89823113E-16
  0.384000003       5.66610143E-16
  0.384999990       6.32659232E-16
  0.386000007       6.84906394E-16
  0.386999995       7.20449961E-16
  0.388000011       7.36666672E-16
  0.388999999       7.31329676E-16
  0.389999986       7.02724579E-16
  0.391000003       6.49758339E-16
  0.391999990       5.72056512E-16
  0.393000007       4.70044152E-16
  0.393999994       3.45005943E-16
  0.395000011       1.99120730E-16
  0.395999998       3.54673044E-17
  0.397000015      -1.42001818E-16
  0.398000002      -3.28520617E-16
  0.398999989      -5.18604498E-16
  0.400000006      -7.06179891E-16
  0.400999993      -8.84746613E-16
  0.402000010      -1.04757012E-15
  0.402999997      -1.18789891E-15
  0.404000014      -1.29920232E-15
  0.405000001      -1.37541941E-15
  0.405999988      -1.41121354E-15
  0.407000005      -1.40222186E-15
  0.407999992      -1.34529044E-15
  0.409000009      -1.23868563E-15
  0.409999996      -1.08227147E-15
  0.411000013      -8.77643871E-16
  0.412000000      -6.28213526E-16
  0.412999988      -3.39229601E-16
  0.414000005      -1.77387245E-17
  0.414999992       3.27523712E-16
  0.416000009       6.86312204E-16
  0.416999996       1.04711854E-15
  0.418000013       1.39748345E-15
  0.419000000       1.72436797E-15
  0.419999987       2.01457300E-15
  0.421000004       2.25519833E-15
  0.421999991       2.43412472E-15
  0.423000008       2.54050465E-15
  0.423999995       2.56524457E-15
  0.425000012       2.50145939E-15
  0.425999999       2.34488260E-15
  0.426999986       2.09421082E-15
  0.428000003       1.75136926E-15
  0.428999990       1.32167898E-15
  0.430000007       8.13915283E-16
  0.430999994       2.40246549E-16
  0.432000011      -3.83952968E-16
  0.432999998      -1.04041809E-15
  0.433999985      -1.70843327E-15
  0.435000002      -2.36539223E-15
  0.435999990      -2.98746297E-15
  0.437000006      -3.55034347E-15
  0.437999994      -4.03008705E-15
  0.439000010      -4.40396866E-15
  0.439999998      -4.65137132E-15
  0.441000015      -4.75465385E-15
  0.442000002      -4.69997534E-15
  0.442999989      -4.47803576E-15
  0.444000006      -4.08471009E-15
  0.444999993      -3.52153842E-15
  0.446000010      -2.79605089E-15
  0.446999997      -1.92190060E-15
  0.448000014      -9.18792732E-16
  0.449000001       1.87804966E-16
  0.449999988       1.36717121E-15
  0.451000005       2.58405675E-15
  0.451999992       3.79961235E-15
  0.453000009       4.97250226E-15
  0.453999996       6.06016964E-15
  0.455000013       7.02022474E-15
  0.456000000       7.81191128E-15
  0.456999987       8.39760322E-15
  0.458000004       8.74428449E-15
  0.458999991       8.82495252E-15
  0.460000008       8.61990617E-15
  0.460999995       8.11784433E-15
  0.462000012       7.31675107E-15
  0.463000000       6.22450293E-15
  0.463999987       4.85917814E-15
  0.465000004       3.24902844E-15
  0.465999991       1.43210603E-15
  0.467000008      -5.44468067E-16
  0.467999995      -2.62558360E-15
  0.469000012      -4.74955048E-15
  0.469999999      -6.84980721E-15
  0.470999986      -8.85688651E-15
  0.472000003      -1.07005808E-14
  0.472999990      -1.23122439E-14
  0.474000007      -1.36271592E-14
  0.474999994      -1.45868967E-14
  0.476000011      -1.51415677E-14
  0.476999998      -1.52519192E-14
  0.477999985      -1.48911526E-14
  0.479000002      -1.40464295E-14
  0.479999989      -1.27199717E-14
  0.481000006      -1.09297083E-14
  0.481999993      -8.70943332E-15
  0.483000010      -6.10843316E-15
  0.483999997      -3.19058211E-15
  0.485000014      -3.29129872E-17
  0.486000001       3.27631709E-15
  0.486999989       6.64001706E-15
  0.488000005       9.95504948E-15
  0.488999993       1.31153396E-14
  0.490000010       1.60152060E-14
  0.490999997       1.85528235E-14
  0.492000014       2.06336955E-14
  0.493000001       2.21740181E-14
  0.493999988       2.31038384E-14
  0.495000005       2.33698575E-14
  0.495999992       2.29378064E-14
  0.497000009       2.17942831E-14
  0.497999996       1.99479579E-14
  0.499000013       1.74301119E-14
  0.500000000       1.42944348E-14
  0.500999987       1.06160943E-14
  0.501999974       6.49005115E-15
  0.503000021       2.02867737E-15
  0.504000008      -2.64128420E-15
  0.504999995      -7.38232836E-15
  0.505999982      -1.20502685E-14
  0.507000029      -1.64986687E-14
  0.508000016      -2.05834851E-14
  0.509000003      -2.41677727E-14
  0.509999990      -2.71263064E-14
  0.510999978      -2.93499491E-14
  0.512000024      -3.07496236E-14
  0.513000011      -3.12597441E-14
  0.513999999      -3.08409744E-14
  0.514999986      -2.94821981E-14
  0.515999973      -2.72016262E-14
  0.517000020      -2.40469791E-14
  0.518000007      -2.00946979E-14
  0.518999994      -1.54482055E-14
  0.519999981      -1.02352505E-14
  0.521000028      -4.60437666E-15
  0.522000015       1.27935285E-15
  0.523000002       7.23927974E-15
  0.523999989       1.30925578E-14
  0.524999976       1.86558837E-14
  0.526000023       2.37513697E-14
  0.527000010       2.82123483E-14
  0.527999997       3.18889541E-14
  0.528999984       3.46532461E-14
  0.529999971       3.64037278E-14
  0.531000018       3.70690959E-14
  0.532000005       3.66110544E-14
  0.532999992       3.50261337E-14
  0.533999979       3.23463858E-14
  0.535000026       2.86389429E-14
  0.536000013       2.40044411E-14
  0.537000000       1.85742992E-14
  0.537999988       1.25069912E-14
  0.538999975       5.98335561E-15
  0.540000021      -7.98870124E-16
  0.541000009      -7.63114937E-15
  0.541999996      -1.43006741E-14
  0.542999983      -2.05971189E-14
  0.544000030      -2.63193889E-14
  0.545000017      -3.12821600E-14
  0.546000004      -3.53219854E-14
  0.546999991      -3.83027384E-14
  0.547999978      -4.01202576E-14
  0.549000025      -4.07059843E-14
  0.550000012      -4.00294930E-14
  0.550999999      -3.80998232E-14
  0.551999986      -3.49655235E-14
  0.552999973      -3.07134587E-14
  0.554000020      -2.54663420E-14
  0.555000007      -1.93791313E-14
  0.555999994      -1.26343392E-14
  0.556999981      -5.43645439E-15
  0.558000028       1.99438333E-15
  0.559000015       9.42922752E-15
  0.560000002       1.66374838E-14
  0.560999990       2.33941471E-14
  0.561999977       2.94868805E-14
  0.563000023       3.47226994E-14
  0.564000010       3.89340693E-14
  0.564999998       4.19841977E-14
  0.565999985       4.37713593E-14
  0.566999972       4.42321147E-14
  0.568000019       4.33433163E-14
  0.569000006       4.11228668E-14
  0.569999993       3.76291676E-14
  0.570999980       3.29593327E-14
  0.572000027       2.72461903E-14
  0.573000014       2.06541869E-14
  0.574000001       1.33743478E-14
  0.574999988       5.61843518E-15
  0.575999975      -2.38747375E-15
  0.577000022      -1.04098122E-14
  0.578000009      -1.82145135E-14
  0.578999996      -2.55739474E-14
  0.579999983      -3.22735951E-14
  0.580999970      -3.81182614E-14
  0.582000017      -4.29376112E-14
  0.583000004      -4.65909084E-14
  0.583999991      -4.89708100E-14
  0.584999979      -5.00061181E-14
  0.586000025      -4.96634119E-14
  0.587000012      -4.79475671E-14
  0.588000000      -4.49011623E-14
  0.588999987      -4.06027818E-14
  0.589999974      -3.51643695E-14
  0.591000021      -2.87276713E-14
  0.592000008      -2.14599202E-14
  0.592999995      -1.35489425E-14
  0.593999982      -5.19781090E-15
  0.595000029       3.38076493E-15
  0.596000016       1.19701442E-14
  0.597000003       2.03553859E-14
  0.597999990       2.83286561E-14
  0.598999977       3.56942598E-14
  0.600000024       4.22731850E-14
  0.601000011       4.79070552E-14
  0.601999998       5.24614193E-14
  0.602999985       5.58283210E-14
  0.603999972       5.79281157E-14
  0.605000019       5.87105641E-14
  0.606000006       5.81551951E-14
  0.606999993       5.62709771E-14
  0.607999980       5.30953929E-14
  0.609000027       4.86929290E-14
  0.610000014       4.31531235E-14
  0.611000001       3.65881912E-14
  0.611999989       2.91303711E-14
  0.612999976       2.09290203E-14
  0.614000022       1.21475689E-14
  0.615000010       2.96038693E-15
  0.615999997      -6.45037824E-15
  0.616999984      -1.58979546E-14
  0.617999971      -2.51940413E-14
  0.619000018      -3.41518433E-14
  0.620000005      -4.25890029E-14
  0.620999992      -5.03304538E-14
  0.621999979      -5.72111802E-14
  0.623000026      -6.30788688E-14
  0.624000013      -6.77964764E-14
  0.625000000      -7.12447001E-14
  0.625999987      -7.33243490E-14
  0.626999974      -7.39585530E-14
  0.628000021      -7.30948844E-14
  0.629000008      -7.07072205E-14
  0.629999995      -6.67974045E-14
  0.630999982      -6.13965936E-14
  0.632000029      -5.45662555E-14
  0.633000016      -4.63987098E-14
  0.634000003      -3.70171423E-14
  0.634999990      -2.65750489E-14
  0.635999978      -1.52549922E-14
  0.637000024      -3.26665392E-15
  0.638000011       9.15589931E-15
  0.638999999       2.17577387E-14
  0.639999986       3.42673989E-14
  0.640999973       4.64019726E-14
  0.642000020       5.78729434E-14
  0.643000007       6.83926250E-14
  0.643999994       7.76811476E-14
  0.644999981       8.54737966E-14
  0.646000028       9.15285642E-14
  0.647000015       9.56336722E-14
  0.648000002       9.76148416E-14
  0.648999989       9.73421647E-14
  0.649999976       9.47361696E-14
  0.651000023       8.97730173E-14
  0.652000010       8.24884526E-14
  0.652999997       7.29803587E-14
  0.653999984       6.14097735E-14
  0.654999971       4.80001205E-14
  0.656000018       3.30346170E-14
  0.657000005       1.68518001E-14
  0.657999992      -1.60827496E-16
  0.658999979      -1.75749833E-14
  0.660000026      -3.49314693E-14
  0.661000013      -5.17515548E-14
  0.662000000      -6.75495765E-14
  0.662999988      -8.18465236E-14
  0.663999975      -9.41841684E-14
  0.665000021      -1.04139408E-13
  0.666000009      -1.11338375E-13
  0.666999996      -1.15469862E-13
  0.667999983      -1.16297624E-13
  0.669000030      -1.13671124E-13
  0.670000017      -1.07534309E-13
  0.671000004      -9.79320114E-14
  0.671999991      -8.50136747E-14
  0.672999978      -6.90342016E-14
  0.674000025      -5.03516296E-14
  0.675000012      -2.94216420E-14
  0.675999999      -6.78885938E-15
  0.676999986       1.69249600E-14
  0.677999973       4.10356360E-14
  0.679000020       6.48138973E-14
  0.680000007       8.75049070E-14
  0.680999994       1.08349561E-13
  0.681999981       1.26606963E-13
  0.683000028       1.41577451E-13
  0.684000015       1.52625579E-13
  0.685000002       1.59202295E-13
  0.685999990       1.60865651E-13
  0.686999977       1.57299331E-13
  0.688000023       1.48328385E-13
  0.689000010       1.33931521E-13
  0.689999998       1.14249444E-13
  0.690999985       8.95888588E-14
  0.691999972       6.04216791E-14
  0.693000019       2.73794083E-14
  0.694000006      -8.75749312E-15
  0.694999993      -4.70751232E-14
  0.695999980      -8.65463232E-14
  0.697000027      -1.26055145E-13
  0.698000014      -1.64425114E-13
  0.699000001      -2.00450577E-13
  0.699999988      -2.32930428E-13
  0.700999975      -2.60703351E-13
  0.702000022      -2.82683436E-13
  0.703000009      -2.97895443E-13
  0.703999996      -3.05508494E-13
  0.704999983      -3.04867107E-13
  0.705999970      -2.95518601E-13
  0.707000017      -2.77235998E-13
  0.708000004      -2.50035398E-13
  0.708999991      -2.14187256E-13
  0.709999979      -1.70220636E-13
  0.711000025      -1.18920390E-13
  0.712000012      -6.13168438E-14
  0.713000000       1.33216175E-15
  0.713999987       6.75665036E-14
  0.714999974       1.35755990E-13
  0.716000021       2.04138843E-13
  0.717000008       2.70865795E-13
  0.717999995       3.34048490E-13
  0.718999982       3.91811339E-13
  0.720000029       4.42345054E-13
  0.721000016       4.83960636E-13
  0.722000003       5.15142616E-13
  0.722999990       5.34598841E-13
  0.723999977       5.41306800E-13
  0.725000024       5.34553359E-13
  0.726000011       5.13967937E-13
  0.726999998       4.79546687E-13
  0.727999985       4.31667397E-13
  0.728999972       3.71093835E-13
  0.730000019       2.98969210E-13
  0.731000006       2.16798354E-13
  0.731999993       1.26418692E-13
  0.732999980       2.99605413E-14
  0.734000027      -7.02027480E-14
  0.735000014      -1.71513614E-13
  0.736000001      -2.71296657E-13
  0.736999989      -3.66831077E-13
  0.737999976      -4.55427091E-13
  0.739000022      -5.34504244E-13
  0.740000010      -6.01669539E-13
  0.740999997      -6.54792735E-13
  0.741999984      -6.92076604E-13
  0.742999971      -7.12120250E-13
  0.744000018      -7.13972392E-13
  0.745000005      -6.97173547E-13
  0.745999992      -6.61785134E-13
  0.746999979      -6.08403735E-13
  0.748000026      -5.38160228E-13
  0.749000013      -4.52702546E-13
  0.750000000      -3.54162717E-13
  0.750999987      -2.45108133E-13
  0.751999974      -1.28477957E-13
  0.753000021      -7.50643478E-15
  0.754000008       1.14365372E-13
  0.754999995       2.33586859E-13
  0.755999982       3.46601518E-13
  0.757000029       4.49954310E-13
  0.758000016       5.40399051E-13
  0.759000003       6.15002732E-13
  0.759999990       6.71243714E-13
  0.760999978       7.07100014E-13
  0.762000024       7.21125145E-13
  0.763000011       7.12508340E-13
  0.763999999       6.81116784E-13
  0.764999986       6.27518599E-13
  0.765999973       5.52984145E-13
  0.767000020       4.59466070E-13
  0.768000007       3.49557053E-13
  0.768999994       2.26426638E-13
  0.769999981       9.37382496E-14
  0.771000028      -4.44519198E-14
  0.772000015      -1.83810920E-13
  0.773000002      -3.19857205E-13
  0.773999989      -4.48097072E-13
  0.774999976      -5.64165251E-13
  0.776000023      -6.63965410E-13
  0.777000010      -7.43806058E-13
  0.777999997      -8.00527613E-13
  0.778999984      -8.31615755E-13
  0.779999971      -8.35297922E-13
  0.781000018      -8.10618662E-13
  0.782000005      -7.57491346E-13
  0.782999992      -6.76723705E-13
  0.783999979      -5.70015714E-13
  0.785000026      -4.39929397E-13
  0.786000013      -2.89830307E-13
  0.787000000      -1.23802444E-13
  0.787999988       5.34619380E-14
  0.788999975       2.36794389E-13
  0.790000021       4.20700557E-13
  0.791000009       5.99524391E-13
  0.791999996       7.67621318E-13
  0.792999983       9.19534956E-13
  0.794000030       1.05017243E-12
  0.795000017       1.15497108E-12
  0.796000004       1.23005306E-12
  0.796999991       1.27236091E-12
  0.797999978       1.27977056E-12
  0.799000025       1.25117668E-12
  0.800000012       1.18654760E-12
  0.800999999       1.08694781E-12
  0.801999986       9.54525304E-13
  0.802999973       7.92465323E-13
  0.804000020       6.04910057E-13
  0.805000007       3.96846239E-13
  0.805999994       1.73964494E-13
  0.806999981      -5.75059884E-14
  0.808000028      -2.90982895E-13
  0.809000015      -5.19730092E-13
  0.810000002      -7.37065140E-13
  0.810999990      -9.36568097E-13
  0.811999977      -1.11228474E-12
  0.813000023      -1.25891853E-12
  0.814000010      -1.37200407E-12
  0.814999998      -1.44805565E-12
  0.815999985      -1.48468792E-12
  0.816999972      -1.48070163E-12
  0.818000019      -1.43613376E-12
  0.819000006      -1.35226791E-12
  0.819999993      -1.23160564E-12
  0.820999980      -1.07779833E-12
  0.822000027      -8.95541725E-13
  0.823000014      -6.90436044E-13
  0.824000001      -4.68815850E-13
  0.824999988      -2.37554930E-13
  0.825999975      -3.85219785E-15
  0.827000022       2.24994489E-13
  0.828000009       4.41819460E-13
  0.828999996       6.39817951E-13
  0.829999983       8.12764515E-13
  0.830999970       9.55214423E-13
  0.832000017       1.06268098E-12
  0.833000004       1.13178304E-12
  0.833999991       1.16035783E-12
  0.834999979       1.14753476E-12
  0.836000025       1.09376744E-12
  0.837000012       1.00082323E-12
  0.838000000       8.71730205E-13
  0.838999987       7.10682544E-13
  0.839999974       5.22907672E-13
  0.841000021       3.14499213E-13
  0.842000008       9.22206986E-14
  0.842999995      -1.36713110E-13
  0.843999982      -3.64870813E-13
  0.845000029      -5.84846895E-13
  0.846000016      -7.89504746E-13
  0.847000003      -9.72211352E-13
  0.847999990      -1.12705765E-12
  0.848999977      -1.24905500E-12
  0.850000024      -1.33430376E-12
  0.851000011      -1.38012637E-12
  0.851999998      -1.38516173E-12
  0.852999985      -1.34941754E-12
  0.853999972      -1.27427799E-12
  0.855000019      -1.16246737E-12
  0.856000006      -1.01797086E-12