   0.00000000       0.00000000    
   1.00000005E-03   0.00000000    
   2.00000009E-03   0.00000000    
   3.00000003E-03   0.00000000    
   4.00000019E-03   1.84699724E-19
   4.99999989E-03   1.23261688E-18
   6.00000005E-03   3.68203981E-18
   7.00000022E-03   3.38227121E-18
   8.00000038E-03  -2.26140376E-17
   8.99999961E-03  -1.48378692E-16
   9.99999978E-03  -5.60979704E-16
   1.09999999E-02  -1.66470329E-15
   1.20000001E-02  -4.23952357E-15
   1.30000003E-02  -9.66205401E-15
   1.40000004E-02  -2.01893793E-14
   1.49999997E-02  -3.92942481E-14
   1.60000008E-02  -7.20255900E-14
   1.70000009E-02  -1.25348150E-13
   1.79999992E-02  -2.08398050E-13
   1.89999994E-02  -3.32569855E-13
   1.99999996E-02  -5.11340319E-13
   2.09999997E-02  -7.59721550E-13
   2.19999999E-02  -1.09324323E-12
   2.30000000E-02  -1.52637928E-12
   2.40000002E-02  -2.07036341E-12
   2.50000004E-02  -2.73038449E-12
   2.60000005E-02  -3.50223041E-12
   2.70000007E-02  -4.36849818E-12
   2.80000009E-02  -5.29459679E-12
   2.89999992E-02  -6.22488476E-12
   2.99999993E-02  -7.07928247E-12
   3.09999995E-02  -7.75091623E-12
   3.20000015E-02  -8.10524130E-12
   3.29999998E-02  -7.98126929E-12
   3.40000018E-02  -7.19536540E-12
   3.50000001E-02  -5.54813313E-12
   3.59999985E-02  -2.83465612E-12
   3.70000005E-02   1.14171617E-12
   3.79999988E-02   6.55212863E-12
   3.90000008E-02   1.35219475E-11
   3.99999991E-02   2.21080793E-11
   4.10000011E-02   3.22750993E-11
   4.19999994E-02   4.38712469E-11
   4.30000015E-02   5.66064834E-11
   4.39999998E-02   7.00339786E-11
   4.50000018E-02   8.35377253E-11
   4.60000001E-02   9.63279873E-11
   4.69999984E-02   1.07447135E-10
   4.80000004E-02   1.15787206E-10
   4.89999987E-02   1.20121357E-10
   5.00000007E-02   1.19149288E-10
   5.09999990E-02   1.11557437E-10
   5.20000011E-02   9.60930571E-11
   5.29999994E-02   7.16499846E-11
   5.40000014E-02   3.73637822E-11
   5.49999997E-02  -7.28744582E-12
   5.60000017E-02  -6.23824117E-11
   5.70000000E-02  -1.27460903E-10
   5.79999983E-02  -2.01440128E-10
   5.90000004E-02  -2.82549789E-10
   5.99999987E-02  -3.68292868E-10
   6.10000007E-02  -4.55438798E-10
   6.19999990E-02  -5.40055167E-10
   6.30000010E-02  -6.17582430E-10
   6.40000030E-02  -6.82953860E-10
   6.49999976E-02  -7.30763949E-10
   6.59999996E-02  -7.55481400E-10
   6.70000017E-02  -7.51703533E-10
   6.80000037E-02  -7.14445003E-10
   6.89999983E-02  -6.39451159E-10
   7.00000003E-02  -5.23523669E-10
   7.10000023E-02  -3.64841574E-10
   7.19999969E-02  -1.63263972E-10
   7.29999989E-02   7.94074043E-11
   7.40000010E-02   3.59221403E-10
   7.50000030E-02   6.69944822E-10
   7.59999976E-02   1.00302544E-09
   7.69999996E-02   1.34765599E-09
   7.80000016E-02   1.69095882E-09
   7.90000036E-02   2.01829309E-09
   7.99999982E-02   2.31368258E-09
   8.10000002E-02   2.56036303E-09
   8.20000023E-02   2.74143908E-09
   8.29999968E-02   2.84062152E-09
   8.39999989E-02   2.84303625E-09
   8.50000009E-02   2.73605627E-09
   8.60000029E-02   2.51013588E-09
   8.69999975E-02   2.15959939E-09
   8.79999995E-02   1.68334047E-09
   8.90000015E-02   1.08540177E-09
   9.00000036E-02   3.75374454E-10
   9.09999982E-02  -4.31398445E-10
   9.20000002E-02  -1.31385891E-09
   9.30000022E-02  -2.24553265E-09
   9.39999968E-02  -3.19509463E-09
   9.49999988E-02  -4.12721812E-09
   9.60000008E-02  -5.00367037E-09
   9.70000029E-02  -5.78466608E-09
   9.79999974E-02  -6.43040154E-09
   9.89999995E-02  -6.90275126E-09
  0.100000001      -7.16704118E-09
  0.101000004      -7.19383841E-09
  0.101999998      -6.96067826E-09
  0.103000000      -6.45364073E-09
  0.104000002      -5.66867397E-09
  0.104999997      -4.61264626E-09
  0.105999999      -3.30396888E-09
  0.107000001      -1.77278769E-09
  0.108000003      -6.06856371E-11
  0.108999997       1.78014259E-09
  0.109999999       3.68824593E-09
  0.111000001       5.59476687E-09
  0.112000003       7.42577511E-09
  0.112999998       9.10499320E-09
  0.114000000       1.05568150E-08
  0.115000002       1.17095595E-08
  0.115999997       1.24987460E-08
  0.116999999       1.28703306E-08
  0.118000001       1.27837163E-08
  0.119000003       1.22143753E-08
  0.119999997       1.11559890E-08
  0.120999999       9.62190683E-09
  0.122000001       7.64589103E-09
  0.123000003       5.28200239E-09
  0.123999998       2.60359689E-09
  0.125000000      -2.98577829E-10
  0.126000002      -3.31915051E-09
  0.127000004      -6.34174446E-09
  0.128000006      -9.24325594E-09
  0.128999993      -1.18987353E-08
  0.129999995      -1.41866376E-08
  0.130999997      -1.59942193E-08
  0.131999999      -1.72229164E-08
  0.133000001      -1.77934183E-08
  0.134000003      -1.76501658E-08
  0.135000005      -1.67651226E-08
  0.136000007      -1.51405146E-08
  0.136999995      -1.28104309E-08
  0.137999997      -9.84109683E-09
  0.138999999      -6.32973185E-09
  0.140000001      -2.40204900E-09
  0.141000003       1.79176296E-09
  0.142000005       6.08225381E-09
  0.143000007       1.02871107E-08
  0.143999994       1.42185197E-08
  0.144999996       1.76910859E-08
  0.145999998       2.05301554E-08
  0.147000000       2.25800889E-08
  0.148000002       2.37121096E-08
  0.149000004       2.38314239E-08
  0.150000006       2.28831674E-08
  0.150999993       2.08569180E-08
  0.151999995       1.77894623E-08
  0.152999997       1.37655469E-08
  0.153999999       8.91663898E-09
  0.155000001       3.41742590E-09
  0.156000003      -2.51978194E-09
  0.157000005      -8.65254535E-09
  0.158000007      -1.47176564E-08
  0.158999994      -2.04418207E-08
  0.159999996      -2.55533443E-08
  0.160999998      -2.97944549E-08
  0.162000000      -3.29334888E-08
  0.163000003      -3.47766438E-08
  0.164000005      -3.51785623E-08
  0.165000007      -3.40513324E-08
  0.165999994      -3.13712967E-08
  0.166999996      -2.71834057E-08
  0.167999998      -2.16025722E-08
  0.169000000      -1.48120760E-08
  0.170000002      -7.05869319E-09
  0.171000004       1.35518796E-09
  0.172000006       1.00824789E-08
  0.172999993       1.87448030E-08
  0.173999995       2.69480100E-08
  0.174999997       3.42992159E-08
  0.175999999       4.04246947E-08
  0.177000001       4.49877433E-08
  0.178000003       4.77058961E-08
  0.179000005       4.83664238E-08
  0.180000007       4.68396557E-08
  0.180999994       4.30891376E-08
  0.181999996       3.71781184E-08
  0.182999998       2.92718898E-08
  0.184000000       1.96356460E-08
  0.185000002       8.62767457E-09
  0.186000004      -3.31183325E-09
  0.187000006      -1.56765267E-08
  0.187999994      -2.79130798E-08
  0.188999996      -3.94439184E-08
  0.189999998      -4.96918098E-08
  0.191000000      -5.81059325E-08
  0.192000002      -6.41882423E-08
  0.193000004      -6.75185774E-08
  0.194000006      -6.77779255E-08
  0.194999993      -6.47681375E-08
  0.195999995      -5.84274744E-08
  0.196999997      -4.88408460E-08
  0.197999999      -3.62440993E-08
  0.199000001      -2.10218776E-08
  0.200000003      -3.69865871E-09
  0.201000005       1.50765693E-08
  0.202000007       3.45522579E-08
  0.202999994       5.39015588E-08
  0.203999996       7.22545650E-08
  0.204999998       8.87339979E-08
  0.206000000       1.02493004E-07
  0.207000002       1.12753710E-07
  0.208000004       1.18844582E-07
  0.209000006       1.20235356E-07
  0.209999993       1.16567215E-07
  0.210999995       1.07677465E-07
  0.211999997       9.36168263E-08
  0.213000000       7.46585016E-08
  0.214000002       5.12979454E-08
  0.215000004       2.42433877E-08
  0.216000006      -5.60339819E-09
  0.216999993      -3.71754467E-08
  0.217999995      -6.92772701E-08
  0.218999997      -1.00628881E-07
  0.219999999      -1.29915279E-07
  0.221000001      -1.55840041E-07
  0.222000003      -1.77180155E-07
  0.223000005      -1.92840830E-07
  0.224000007      -2.01906929E-07
  0.224999994      -2.03689197E-07
  0.225999996      -1.97763754E-07
  0.226999998      -1.84000982E-07
  0.228000000      -1.62584442E-07
  0.229000002      -1.34017043E-07
  0.230000004      -9.91141462E-08
  0.231000006      -5.89833142E-08
  0.231999993      -1.49911230E-08
  0.232999995       3.12823296E-08
  0.233999997       7.80995180E-08
  0.234999999       1.23630471E-07
  0.236000001       1.66024478E-07
  0.237000003       2.03485058E-07
  0.238000005       2.34346004E-07
  0.238999993       2.57145075E-07
  0.239999995       2.70691430E-07
  0.240999997       2.74125483E-07
  0.241999999       2.66966254E-07
  0.243000001       2.49145671E-07
  0.244000003       2.21026156E-07
  0.245000005       1.83402051E-07
  0.246000007       1.37482516E-07
  0.246999994       8.48567794E-08
  0.247999996       2.74425176E-08
  0.248999998      -3.25811307E-08
  0.250000000      -9.28542505E-08
  0.250999987      -1.50926340E-07
  0.252000004      -2.04354379E-07
  0.252999991      -2.50803026E-07
  0.254000008      -2.88144918E-07
  0.254999995      -3.14554654E-07
  0.256000012      -3.28594638E-07
  0.256999999      -3.29287161E-07
  0.257999986      -3.16169917E-07
  0.259000003      -2.89332775E-07
  0.259999990      -2.49432077E-07
  0.261000007      -1.97682766E-07
  0.261999995      -1.35827023E-07
  0.263000011      -6.60799415E-08
  0.263999999       8.94579166E-09
  0.264999986       8.63341043E-08
  0.266000003       1.62975169E-07
  0.266999990       2.35686912E-07
  0.268000007       3.01342823E-07
  0.268999994       3.57001966E-07
  0.270000011       4.00034963E-07
  0.270999998       4.28242004E-07
  0.272000015       4.39955727E-07
  0.273000002       4.34126463E-07
  0.273999989       4.10384416E-07
  0.275000006       3.69075650E-07
  0.275999993       3.11270156E-07
  0.277000010       2.38740910E-07
  0.277999997       1.53912779E-07
  0.279000014       5.97839787E-08
  0.280000001      -4.01785663E-08
  0.280999988      -1.42165590E-07
  0.282000005      -2.42169875E-07
  0.282999992      -3.36142676E-07
  0.284000009      -4.20155772E-07
  0.284999996      -4.90564389E-07
  0.286000013      -5.44161651E-07
  0.287000000      -5.78320567E-07
  0.287999988      -5.91116134E-07
  0.289000005      -5.81422000E-07
  0.289999992      -5.48977425E-07
  0.291000009      -4.94421442E-07
  0.291999996      -4.19290984E-07
  0.293000013      -3.25982683E-07
  0.294000000      -2.17679542E-07
  0.294999987      -9.82432695E-08
  0.296000004       2.79229990E-08
  0.296999991       1.56037601E-07
  0.298000008       2.81121913E-07
  0.298999995       3.98194743E-07
  0.300000012       5.02471380E-07
  0.300999999       5.89558965E-07
  0.301999986       6.55641600E-07
  0.303000003       6.97645362E-07
  0.303999990       7.13378256E-07
  0.305000007       7.01637020E-07
  0.305999994       6.62277159E-07
  0.307000011       5.96242216E-07
  0.307999998       5.05549110E-07
  0.308999985       3.93231346E-07
  0.310000002       2.63238974E-07
  0.310999990       1.20301024E-07
  0.312000006      -3.02465004E-08
  0.312999994      -1.82660813E-07
  0.314000010      -3.31011819E-07
  0.314999998      -4.69413919E-07
  0.316000015      -5.92260449E-07
  0.317000002      -6.94450137E-07
  0.317999989      -7.71599616E-07
  0.319000006      -8.20229104E-07
  0.319999993      -8.37915820E-07
  0.321000010      -8.23408186E-07
  0.321999997      -7.76695231E-07
  0.323000014      -6.99026600E-07
  0.324000001      -5.92883907E-07
  0.324999988      -4.61900981E-07
  0.326000005      -3.10738869E-07
  0.326999992      -1.44915930E-07
  0.328000009       2.93978406E-08
  0.328999996       2.05614995E-07
  0.330000013       3.76985724E-07
  0.331000000       5.36862046E-07
  0.331999987       6.78962238E-07
  0.333000004       7.97622874E-07
  0.333999991       8.88031082E-07
  0.335000008       9.46422858E-07
  0.335999995       9.70245537E-07
  0.337000012       9.58269766E-07
  0.338000000       9.10652545E-07
  0.338999987       8.28943655E-07
  0.340000004       7.16038187E-07
  0.340999991       5.76072637E-07
  0.342000008       4.14271341E-07
  0.342999995       2.36747908E-07
  0.344000012       5.02684934E-08
  0.344999999      -1.38012794E-07
  0.345999986      -3.20836222E-07
  0.347000003      -4.91125718E-07
  0.347999990      -6.42272767E-07
  0.349000007      -7.68402856E-07
  0.349999994      -8.64615629E-07
  0.351000011      -9.27185965E-07
  0.351999998      -9.53718768E-07
  0.352999985      -9.43251962E-07
  0.354000002      -8.96300605E-07
  0.354999989      -8.14841826E-07
  0.356000006      -7.02240015E-07
  0.356999993      -5.63114668E-07
  0.358000010      -4.03157372E-07
  0.358999997      -2.28902493E-07
  0.360000014      -4.74633310E-08
  0.361000001       1.33757396E-07
  0.361999989       3.07369078E-07
  0.363000005       4.66297280E-07
  0.363999993       6.04074671E-07
  0.365000010       7.15109081E-07
  0.365999997       7.94915422E-07
  0.367000014       8.40303358E-07
  0.368000001       8.49512730E-07
  0.368999988       8.22287916E-07
  0.370000005       7.59892373E-07
  0.370999992       6.65058678E-07
  0.372000009       5.41877057E-07
  0.372999996       3.95626785E-07
  0.374000013       2.32557980E-07
  0.375000000       5.96310130E-08
  0.375999987      -1.15774199E-07
  0.377000004      -2.86168472E-07
  0.377999991      -4.44267869E-07
  0.379000008      -5.83302835E-07
  0.379999995      -6.97304984E-07
  0.381000012      -7.81362189E-07
  0.381999999      -8.31829880E-07
  0.382999986      -8.46489002E-07
  0.384000003      -8.24645440E-07
  0.384999990      -7.67163556E-07
  0.386000007      -6.76434979E-07
  0.386999995      -5.56281407E-07
  0.388000011      -4.11796890E-07
  0.388999999      -2.49134700E-07
  0.389999986      -7.52475131E-08
  0.391000003       1.02406737E-07
  0.391999990       2.76182760E-07
  0.393000007       4.38575739E-07
  0.393999994       5.82544203E-07
  0.395000011       7.01815168E-07
  0.395999998       7.91158413E-07
  0.397000015       8.46616786E-07
  0.398000002       8.65684569E-07
  0.398999989       8.47422882E-07
  0.400000006       7.92509866E-07
  0.400999993       7.03221247E-07
  0.402000010       5.83341887E-07
  0.402999997       4.38011824E-07
  0.404000014       2.73513564E-07
  0.405000001       9.70069678E-08
  0.405999988      -8.37733580E-08
  0.407000005      -2.60849362E-07
  0.407999992      -4.26343661E-07
  0.409000009      -5.72821307E-07
  0.409999996      -6.93615618E-07
  0.411000013      -7.83124619E-07
  0.412000000      -8.37062601E-07
  0.412999988      -8.52657820E-07
  0.414000005      -8.28787336E-07
  0.414999992      -7.66041296E-07
  0.416000009      -6.66714072E-07
  0.416999996      -5.34723256E-07
  0.418000013      -3.75456835E-07
  0.419000000      -1.95556282E-07
  0.419999987      -2.64387512E-09
  0.421000004       1.94994612E-07
  0.421999991       3.88758934E-07
  0.423000008       5.70100553E-07
  0.423999995       7.30889440E-07
  0.425000012       8.63767468E-07
  0.425999999       9.62471518E-07
  0.426999986       1.02211402E-06
  0.428000003       1.03940704E-06
  0.428999990       1.01282058E-06
  0.430000007       9.42667612E-07
  0.430999994       8.31112118E-07
  0.432000011       6.82098346E-07
  0.432999998       5.01203033E-07
  0.433999985       2.95418943E-07
  0.435000002       7.28748049E-08
  0.435999990      -1.57494895E-07
  0.437000006      -3.86317282E-07
  0.437999994      -6.04169713E-07
  0.439000010      -8.01974693E-07
  0.439999998      -9.71383656E-07
  0.441000015      -1.10513224E-06
  0.442000002      -1.19735512E-06
  0.442999989      -1.24384178E-06
  0.444000006      -1.24222720E-06
  0.444999993      -1.19210472E-06
  0.446000010      -1.09505879E-06
  0.446999997      -9.54613938E-07
  0.448000014      -7.76101388E-07
  0.449000001      -5.66449216E-07
  0.449999988      -3.33905462E-07
  0.451000005      -8.77026096E-08
  0.451999992       1.62321342E-07
  0.453000009       4.06128606E-07
  0.453999996       6.33897798E-07
  0.455000013       8.36435163E-07
  0.456000000       1.00555894E-06
  0.456999987       1.13444571E-06
  0.458000004       1.21791970E-06
  0.458999991       1.25267502E-06
  0.460000008       1.23741972E-06
  0.460999995       1.17293700E-06
  0.462000012       1.06205755E-06
  0.463000000       9.09547168E-07
  0.463999987       7.21911135E-07
  0.465000004       5.07125151E-07
  0.465999991       2.74303517E-07
  0.467000008       3.33170185E-08
  0.467999995      -2.05622115E-07
  0.469000012      -4.32390237E-07
  0.469999999      -6.37381902E-07
  0.470999986      -8.11917971E-07
  0.472000003      -9.48614854E-07
  0.472999990      -1.04170260E-06
  0.474000007      -1.08727306E-06
  0.474999994      -1.08345137E-06
  0.476000011      -1.03048023E-06
  0.476999998      -9.30716055E-07
  0.477999985      -7.88533328E-07
  0.479000002      -6.10143786E-07
  0.479999989      -4.03335491E-07
  0.481000006      -1.77144813E-07
  0.481999993       5.85275899E-08
  0.483000010       2.93338445E-07
  0.483999997       5.16944226E-07
  0.485000014       7.19445495E-07
  0.486000001       8.91816228E-07
  0.486999989       1.02629303E-06
  0.488000005       1.11671852E-06
  0.488999993       1.15881232E-06
  0.490000010       1.15036516E-06
  0.490999997       1.09134635E-06
  0.492000014       9.83916607E-07
  0.493000001       8.32349997E-07
  0.493999988       6.42860527E-07
  0.495000005       4.23349320E-07
  0.495999992       1.83075585E-07
  0.497000009      -6.77323655E-08
  0.497999996      -3.18308196E-07
  0.499000013      -5.57806061E-07
  0.500000000      -7.75765784E-07
  0.500999987      -9.62561785E-07
  0.501999974      -1.10982285E-06
  0.503000021      -1.21079927E-06
  0.504000008      -1.26066345E-06
  0.504999995      -1.25673125E-06
  0.505999982      -1.19859374E-06
  0.507000029      -1.08815232E-06
  0.508000016      -9.29559178E-07
  0.509000003      -7.29055728E-07
  0.509999990      -4.94727090E-07
  0.510999978      -2.36175055E-07
  0.512000024       3.58773313E-08
  0.513000011       3.10028099E-07
  0.513999999       5.74674402E-07
  0.514999986       8.18498052E-07
  0.515999973       1.03094681E-06
  0.517000020       1.20268282E-06
  0.518000007       1.32598689E-06
  0.518999994       1.39509370E-06
  0.519999981       1.40645125E-06
  0.521000028       1.35888615E-06
  0.522000015       1.25367399E-06
  0.523000002       1.09450173E-06
  0.523999989       8.87336626E-07
  0.524999976       6.40192809E-07
  0.526000023       3.62815911E-07
  0.527000010       6.62909230E-08
  0.527999997      -2.37409424E-07
  0.528999984      -5.35909635E-07
  0.529999971      -8.16944521E-07
  0.531000018      -1.06886114E-06
  0.532000005      -1.28110742E-06
  0.532999992      -1.44466878E-06
  0.533999979      -1.55245095E-06
  0.535000026      -1.59957995E-06
  0.536000013      -1.58361229E-06
  0.537000000      -1.50465269E-06
  0.537999988      -1.36535334E-06
  0.538999975      -1.17082425E-06
  0.540000021      -9.28429813E-07
  0.541000009      -6.47496677E-07
  0.541999996      -3.38943750E-07
  0.542999983      -1.48373083E-08
  0.544000030       3.12095352E-07
  0.545000017       6.28982946E-07
  0.546000004       9.23333801E-07
  0.546999991       1.18354581E-06
  0.547999978       1.39937970E-06
  0.549000025       1.56237581E-06
  0.550000012       1.66620123E-06
  0.550999999       1.70690862E-06
  0.551999986       1.68309771E-06
  0.552999973       1.59596925E-06
  0.554000020       1.44927776E-06
  0.555000007       1.24917699E-06
  0.555999994       1.00396267E-06
  0.556999981       7.23735695E-07
  0.558000028       4.19987202E-07
  0.559000015       1.05122304E-07
  0.560000002      -2.08044241E-07
  0.560999990      -5.06814047E-07
  0.561999977      -7.79128698E-07
  0.563000023      -1.01405647E-06
  0.564000010      -1.20224399E-06
  0.564999998      -1.33629283E-06
  0.565999985      -1.41105977E-06
  0.566999972      -1.42386250E-06
  0.568000019      -1.37458437E-06
  0.569000006      -1.26567204E-06
  0.569999993      -1.10202711E-06
  0.570999980      -8.90799413E-07
  0.572000027      -6.41083602E-07
  0.573000014      -3.63541261E-07
  0.574000001      -6.99536287E-08
  0.574999988       2.27265090E-07
  0.575999975       5.15584475E-07
  0.577000022       7.82876725E-07
  0.578000009       1.01791682E-06
  0.578999996       1.21084554E-06
  0.579999983       1.35357607E-06
  0.580999970       1.44012506E-06
  0.582000017       1.46685454E-06
  0.583000004       1.43262343E-06
  0.583999991       1.33882656E-06
  0.584999979       1.18933713E-06
  0.586000025       9.90342187E-07
  0.587000012       7.50083700E-07
  0.588000000       4.78517507E-07
  0.588999987       1.86904259E-07
  0.589999974      -1.12663599E-07
  0.591000021      -4.07748445E-07
  0.592000008      -6.86091141E-07
  0.592999995      -9.36106858E-07
  0.593999982      -1.14736088E-06
  0.595000029      -1.31099296E-06
  0.596000016      -1.42008571E-06
  0.597000003      -1.46993614E-06
  0.597999990      -1.45825095E-06
  0.598999977      -1.38523512E-06
  0.600000024      -1.25358463E-06
  0.601000011      -1.06836330E-06
  0.601999998      -8.36805214E-07
  0.602999985      -5.68011387E-07
  0.603999972      -2.72579655E-07
  0.605000019       3.78295155E-08
  0.606000006       3.50961585E-07
  0.606999993       6.54469886E-07
  0.607999980       9.36408128E-07
  0.609000027       1.18571461E-06
  0.610000014       1.39265182E-06
  0.611000001       1.54919314E-06
  0.611999989       1.64934238E-06
  0.612999976       1.68936174E-06
  0.614000022       1.66791528E-06
  0.615000010       1.58611761E-06
  0.615999997       1.44746332E-06
  0.616999984       1.25768827E-06
  0.617999971       1.02452930E-06
  0.619000018       7.57390524E-07
  0.620000005       4.66975536E-07
  0.620999992       1.64841964E-07
  0.621999979      -1.37067474E-07
  0.623000026      -4.26890438E-07
  0.624000013      -6.93330890E-07
  0.625000000      -9.26105486E-07
  0.625999987      -1.11633858E-06
  0.626999974      -1.25690894E-06
  0.628000021      -1.34272750E-06
  0.629000008      -1.37091388E-06
  0.629999995      -1.34090021E-06
  0.630999982      -1.25443069E-06
  0.632000029      -1.11548604E-06
  0.633000016      -9.30087026E-07
  0.634000003      -7.06048752E-07
  0.634999990      -4.52647271E-07
  0.635999978      -1.80248591E-07
  0.637000024       1.00132937E-07
  0.638000011       3.77262921E-07
  0.638999999       6.40146368E-07
  0.639999986       8.78465414E-07
  0.640999973       1.08297752E-06
  0.642000020       1.24587871E-06
  0.643000007       1.36110441E-06
  0.643999994       1.42454337E-06
  0.644999981       1.43419493E-06
  0.646000028       1.39022154E-06
  0.647000015       1.29492366E-06
  0.648000002       1.15262389E-06
  0.648999989       9.69485313E-07
  0.649999976       7.53240613E-07
  0.651000023       5.12859401E-07
  0.652000010       2.58201425E-07
  0.652999997      -4.08251960E-10
  0.653999984      -2.52575660E-07
  0.654999971      -4.88263481E-07
  0.656000018      -6.98181566E-07
  0.657000005      -8.74149350E-07
  0.657999992      -1.00940804E-06
  0.658999979      -1.09887401E-06
  0.660000026      -1.13932515E-06
  0.661000013      -1.12951795E-06
  0.662000000      -1.07019957E-06
  0.662999988      -9.64068363E-07
  0.663999975      -8.15653948E-07
  0.665000021      -6.31109742E-07
  0.666000009      -4.17956642E-07
  0.666999996      -1.84774009E-07
  0.667999983       5.91383049E-08
  0.669000030       3.04149722E-07
  0.670000017       5.40668168E-07
  0.671000004       7.59530337E-07
  0.671999991       9.52323944E-07
  0.672999978       1.11174393E-06
  0.674000025       1.23184748E-06
  0.675000012       1.30828209E-06
  0.675999999       1.33841968E-06
  0.676999986       1.32146408E-06
  0.677999973       1.25844861E-06
  0.679000020       1.15218336E-06
  0.680000007       1.00712350E-06
  0.680999994       8.29182625E-07
  0.681999981       6.25484859E-07
  0.683000028       4.04090400E-07
  0.684000015       1.73655621E-07
  0.685000002      -5.68888439E-08
  0.685999990      -2.78678556E-07
  0.686999977      -4.83284680E-07
  0.688000023      -6.62988555E-07
  0.689000010      -8.11096584E-07
  0.689999998      -9.22175786E-07
  0.690999985      -9.92231435E-07
  0.691999972      -1.01884723E-06
  0.693000019      -1.00128159E-06
  0.694000006      -9.40434120E-07
  0.694999993      -8.38814060E-07
  0.695999980      -7.00428643E-07
  0.697000027      -5.30599664E-07
  0.698000014      -3.35750286E-07
  0.699000001      -1.23158102E-07
  0.699999988       9.93423086E-08
  0.700999975       3.23643405E-07
  0.702000022       5.41685438E-07
  0.703000009       7.45745638E-07
  0.703999996       9.28726081E-07
  0.704999983       1.08439849E-06
  0.705999970       1.20763855E-06
  0.707000017       1.29457032E-06
  0.708000004       1.34272545E-06
  0.708999991       1.35105859E-06
  0.709999979       1.32003322E-06
  0.711000025       1.25150098E-06
  0.712000012       1.14866998E-06
  0.713000000       1.01593241E-06
  0.713999987       8.58685382E-07
  0.714999974       6.83117264E-07
  0.716000021       4.95962979E-07
  0.717000008       3.04242690E-07
  0.717999995       1.14990897E-07
  0.718999982      -6.49764189E-08
  0.720000029      -2.29336919E-07
  0.721000016      -3.72489694E-07
  0.722000003      -4.89719412E-07
  0.722999990      -5.77395326E-07
  0.723999977      -6.33055379E-07
  0.725000024      -6.55458223E-07
  0.726000011      -6.44675367E-07
  0.726999998      -6.01977035E-07
  0.727999985      -5.29828185E-07
  0.728999972      -4.31738670E-07
  0.730000019      -3.12116299E-07
  0.731000006      -1.76093550E-07
  0.731999993      -2.93351086E-08
  0.732999980       1.22227348E-07
  0.734000027       2.72564705E-07
  0.735000014       4.15853719E-07
  0.736000001       5.46639285E-07
  0.736999989       6.60034686E-07
  0.737999976       7.51935488E-07
  0.739000022       8.19129696E-07
  0.740000010       8.59419345E-07
  0.740999997       8.71725206E-07
  0.741999984       8.56029601E-07
  0.742999971       8.13448082E-07
  0.744000018       7.46144053E-07
  0.745000005       6.57234864E-07
  0.745999992       5.50646462E-07
  0.746999979       4.30996977E-07
  0.748000026       3.03369575E-07
  0.749000013       1.73162647E-07
  0.750000000       4.58390623E-08
  0.750999987      -7.32536662E-08
  0.751999974      -1.79100155E-07
  0.753000021      -2.67211220E-07
  0.754000008      -3.33759857E-07
  0.754999995      -3.75761289E-07
  0.755999982      -3.91195073E-07
  0.757000029      -3.79021060E-07
  0.758000016      -3.39273043E-07
  0.759000003      -2.73039888E-07
  0.759999990      -1.82433595E-07
  0.760999978      -7.04640115E-08
  0.762000024       5.89600120E-08
  0.763000011       2.01295606E-07
  0.763999999       3.51478434E-07
  0.764999986       5.04066634E-07
  0.765999973       6.53527366E-07
  0.767000020       7.94350399E-07
  0.768000007       9.21318360E-07
  0.768999994       1.02964043E-06
  0.769999981       1.11519000E-06
  0.771000028       1.17459706E-06
  0.772000015       1.20537652E-06
  0.773000002       1.20606956E-06
  0.773999989       1.17623540E-06
  0.774999976       1.11652662E-06
  0.776000023       1.02865204E-06
  0.777000010       9.15245494E-07
  0.777999997       7.79911829E-07
  0.778999984       6.26986264E-07
  0.779999971       4.61420512E-07
  0.781000018       2.88649431E-07
  0.782000005       1.14333986E-07
  0.782999992      -5.58081048E-08
  0.783999979      -2.16154589E-07
  0.785000026      -3.61477049E-07
  0.786000013      -4.87008606E-07
  0.787000000      -5.88696309E-07
  0.787999988      -6.63262711E-07
  0.788999975      -7.08386438E-07
  0.790000021      -7.22693869E-07
  0.791000009      -7.05902664E-07
  0.791999996      -6.58695512E-07
  0.792999983      -5.82819837E-07
  0.794000030      -4.80948756E-07
  0.795000017      -3.56495718E-07
  0.796000004      -2.13699707E-07
  0.796999991      -5.72672860E-08
  0.797999978       1.07677444E-07
  0.799000025       2.75863187E-07
  0.800000012       4.41947861E-07
  0.800999999       6.00792703E-07
  0.801999986       7.47597653E-07
  0.802999973       8.78042272E-07
  0.804000020       9.88463626E-07
  0.805000007       1.07591529E-06
  0.805999994       1.13831254E-06
  0.806999981       1.17443085E-06
  0.808000028       1.18392563E-06
  0.809000015       1.16732713E-06
  0.810000002       1.12598809E-06
  0.810999990       1.06201935E-06
  0.811999977       9.78181220E-07
  0.813000023       8.77815353E-07
  0.814000010       7.64541426E-07
  0.814999998       6.42292093E-07
  0.815999985       5.15089084E-07
  0.816999972       3.86916412E-07
  0.818000019       2.61544045E-07
  0.819000006       1.42462895E-07
  0.819999993       3.26942384E-08
  0.820999980      -6.52024426E-08
  0.822000027      -1.49240336E-07
  0.823000014      -2.18026571E-07
  0.824000001      -2.70761916E-07
  0.824999988      -3.07241606E-07
  0.825999975      -3.27844447E-07
  0.827000022      -3.33349419E-07
  0.828000009      -3.25011143E-07
  0.828999996      -3.04354302E-07
  0.829999983      -2.73172759E-07
  0.830999970      -2.33322268E-07
  0.832000017      -1.86719333E-07
  0.833000004      -1.35189850E-07
  0.833999991      -8.04494178E-08
  0.834999979      -2.39779308E-08
  0.836000025       3.29818377E-08
  0.837000012       8.94509782E-08
  0.838000000       1.44772656E-07
  0.838999987       1.98559960E-07
  0.839999974       2.50557633E-07
  0.841000021       3.00825974E-07
  0.842000008       3.49508014E-07
  0.842999995       3.96829108E-07
  0.843999982       4.42975590E-07
  0.845000029       4.88138880E-07
  0.846000016       5.32294337E-07
  0.847000003       5.75281263E-07
  0.847999990       6.16684758E-07
  0.848999977       6.55931046E-07
  0.850000024       6.92095909E-07
  0.851000011       7.24122458E-07
  0.851999998       7.50636332E-07
  0.852999985       7.70238671E-07
  0.853999972       7.81372648E-07
  0.855000019       7.82530662E-07
  0.856000006       7.72377916E-07