   0.00000000       0.00000000    
   1.00000005E-03   0.00000000    
   2.00000009E-03   0.00000000    
   3.00000003E-03   0.00000000    
   4.00000019E-03   0.00000000    
   4.99999989E-03   0.00000000    
   6.00000005E-03  -1.33317325E-24
   7.00000022E-03  -1.68596315E-23
   8.00000038E-03  -1.14302020E-22
   8.99999961E-03  -5.51035523E-22
   9.99999978E-03  -2.11540779E-21
   1.09999999E-02  -6.87019624E-21
   1.20000001E-02  -1.95912041E-20
   1.30000003E-02  -5.02903162E-20
   1.40000004E-02  -1.18276643E-19
   1.49999997E-02  -2.58197656E-19
   1.60000008E-02  -5.28361358E-19
   1.70000009E-02  -1.02131122E-18
   1.79999992E-02  -1.87606135E-18
   1.89999994E-02  -3.29055074E-18
   1.99999996E-02  -5.53177200E-18
   2.09999997E-02  -8.93966762E-18
   2.19999999E-02  -1.39194182E-17
   2.30000000E-02  -2.09152982E-17
   2.40000002E-02  -3.03581571E-17
   2.50000004E-02  -4.25779044E-17
   2.60000005E-02  -5.76729381E-17
   2.70000007E-02  -7.53298296E-17
   2.80000009E-02  -9.45902868E-17
   2.89999992E-02  -1.13567067E-16
   2.99999993E-02  -1.29118989E-16
   3.09999995E-02  -1.36502562E-16
   3.20000015E-02  -1.29032367E-16
   3.29999998E-02  -9.77899405E-17
   3.40000018E-02  -3.14395204E-17
   3.50000001E-02   8.37838272E-17
   3.59999985E-02   2.63836602E-16
   3.70000005E-02   5.26296193E-16
   3.79999988E-02   8.89375065E-16
   3.90000008E-02   1.37044626E-15
   3.99999991E-02   1.98402412E-15
   4.10000011E-02   2.73917538E-15
   4.19999994E-02   3.63637089E-15
   4.30000015E-02   4.66385658E-15
   4.39999998E-02   5.79366385E-15
   4.50000018E-02   6.97746609E-15
   4.60000001E-02   8.14260141E-15
   4.69999984E-02   9.18855920E-15
   4.80000004E-02   9.98445338E-15
   4.89999987E-02   1.03679086E-14
   5.00000007E-02   1.01459648E-14
   5.09999990E-02   9.09852383E-15
   5.20000011E-02   6.98484968E-15
   5.29999994E-02   3.55363525E-15
   5.40000014E-02  -1.44307870E-15
   5.49999997E-02  -8.23198965E-15
   5.60000017E-02  -1.69966258E-14
   5.70000000E-02  -2.78520205E-14
   5.79999983E-02  -4.08163019E-14
   5.90000004E-02  -5.57808228E-14
   5.99999987E-02  -7.24797623E-14
   6.10000007E-02  -9.04615128E-14
   6.19999990E-02  -1.09063698E-13
   6.30000010E-02  -1.27394690E-13
   6.40000030E-02  -1.44324006E-13
   6.49999976E-02  -1.58484676E-13
   6.59999996E-02  -1.68290105E-13
   6.70000017E-02  -1.71967882E-13
   6.80000037E-02  -1.67612669E-13
   6.89999983E-02  -1.53259255E-13
   7.00000003E-02  -1.26976514E-13
   7.10000023E-02  -8.69809053E-14
   7.19999969E-02  -3.17682451E-14
   7.29999989E-02   3.97403905E-14
   7.40000010E-02   1.28043206E-13
   7.50000030E-02   2.32899691E-13
   7.59999976E-02   3.53177042E-13
   7.69999996E-02   4.86712558E-13
   7.80000016E-02   6.30198964E-13
   7.90000036E-02   7.79107735E-13
   7.99999982E-02   9.27656931E-13
   8.10000002E-02   1.06883838E-12
   8.20000023E-02   1.19451248E-12
   8.29999968E-02   1.29557519E-12
   8.39999989E-02   1.36220917E-12
   8.50000009E-02   1.38421317E-12
   8.60000029E-02   1.35141572E-12
   8.69999975E-02   1.25415791E-12
   8.79999995E-02   1.08384612E-12
   8.90000015E-02   8.33543683E-13
   9.00000036E-02   4.98593083E-13
   9.09999982E-02   7.72369365E-14
   9.20000002E-02  -4.28793394E-13
   9.30000022E-02  -1.01375169E-12
   9.39999968E-02  -1.66745209E-12
   9.49999988E-02  -2.37497587E-12
   9.60000008E-02  -3.11655324E-12
   9.70000029E-02  -3.86764969E-12
   9.79999974E-02  -4.59927018E-12
   9.89999995E-02  -5.27852848E-12
  0.100000001      -5.86947071E-12
  0.101000004      -6.33415195E-12
  0.101999998      -6.63397679E-12
  0.103000000      -6.73124967E-12
  0.104000002      -6.59091488E-12
  0.104999997      -6.18242870E-12
  0.105999999      -5.48168889E-12
  0.107000001      -4.47295629E-12
  0.108000003      -3.15066549E-12
  0.108999997      -1.52104653E-12
  0.109999999       3.96554561E-13
  0.111000001       2.56874491E-12
  0.112000003       4.94762651E-12
  0.112999998       7.47092492E-12
  0.114000000       1.00627007E-11
  0.115000002       1.26347769E-11
  0.115999997       1.50888035E-11
  0.116999999       1.73190368E-11
  0.118000001       1.92157384E-11
  0.119000003       2.06691261E-11
  0.119999997       2.15737705E-11
  0.120999999       2.18333338E-11
  0.122000001       2.13654094E-11
  0.123000003       2.01063281E-11
  0.123999998       1.80157313E-11
  0.125000000       1.50805965E-11
  0.126000002       1.13186249E-11
  0.127000004       6.78065373E-12
  0.128000006       1.55200809E-12
  0.128999993      -4.24747694E-12
  0.129999995      -1.04648070E-11
  0.130999997      -1.69166695E-11
  0.131999999      -2.33937748E-11
  0.133000001      -2.96666580E-11
  0.134000003      -3.54928274E-11
  0.135000005      -4.06250138E-11
  0.136000007      -4.48204807E-11
  0.136999995      -4.78507893E-11
  0.137999997      -4.95119015E-11
  0.138999999      -4.96341371E-11
  0.140000001      -4.80915030E-11
  0.141000003      -4.48101001E-11
  0.142000005      -3.97749611E-11
  0.143000007      -3.30352065E-11
  0.143999994      -2.47069067E-11
  0.144999996      -1.49734357E-11
  0.145999998      -4.08336082E-12
  0.147000000       7.65471454E-12
  0.148000002       1.98798547E-11
  0.149000004       3.21891715E-11
  0.150000006       4.41505825E-11
  0.150999993       5.53176185E-11
  0.151999995       6.52455312E-11
  0.152999997       7.35086783E-11
  0.153999999       7.97176769E-11
  0.155000001       8.35366915E-11
  0.156000003       8.46990811E-11
  0.157000005       8.30214300E-11
  0.158000007       7.84148232E-11
  0.158999994       7.08931525E-11
  0.159999996       6.05774736E-11
  0.160999998       4.76964232E-11
  0.162000000       3.25825339E-11
  0.163000003       1.56639198E-11
  0.164000005      -2.54793474E-12
  0.165000007      -2.14742737E-11
  0.165999994      -4.04885014E-11
  0.166999996      -5.89379864E-11
  0.167999998      -7.61680025E-11
  0.169000000      -9.15458404E-11
  0.170000002      -1.04485469E-10
  0.171000004      -1.14470093E-10
  0.172000006      -1.21073013E-10
  0.172999993      -1.23974941E-10
  0.173999995      -1.22977212E-10
  0.174999997      -1.18010338E-10
  0.175999999      -1.09137213E-10
  0.177000001      -9.65508923E-11
  0.178000003      -8.05671641E-11
  0.179000005      -6.16118129E-11
  0.180000007      -4.02034482E-11
  0.180999994      -1.69326133E-11
  0.181999996       7.56157029E-12
  0.182999998       3.26166524E-11
  0.184000000       5.75716731E-11
  0.185000002       8.17915458E-11
  0.186000004       1.04688237E-10
  0.187000006       1.25738947E-10
  0.187999994       1.44499135E-10
  0.188999996       1.60609970E-10
  0.189999998       1.73800974E-10
  0.191000000       1.83885240E-10
  0.192000002       1.90750082E-10
  0.193000004       1.94341876E-10
  0.194000006       1.94647409E-10
  0.194999993       1.91673219E-10
  0.195999995       1.85422636E-10
  0.196999997       1.75875287E-10
  0.197999999       1.62968514E-10
  0.199000001       1.46584744E-10
  0.200000003       1.26544664E-10
  0.201000005       1.02609754E-10
  0.202000007       7.44935780E-11
  0.202999994       4.18828860E-11
  0.203999996       4.47066429E-12
  0.204999998      -3.80036939E-11
  0.206000000      -8.57034305E-11
  0.207000002      -1.38640030E-10
  0.208000004      -1.96612823E-10
  0.209000006      -2.59150784E-10
  0.209999993      -3.25456911E-10
  0.210999995      -3.94361321E-10
  0.211999997      -4.64286470E-10
  0.213000000      -5.33229627E-10
  0.214000002      -5.98765926E-10
  0.215000004      -6.58075650E-10
  0.216000006      -7.07996550E-10
  0.216999993      -7.45108308E-10
  0.217999995      -7.65838837E-10
  0.218999997      -7.66603891E-10
  0.219999999      -7.43966999E-10
  0.221000001      -6.94818481E-10
  0.222000003      -6.16572682E-10
  0.223000005      -5.07363263E-10
  0.224000007      -3.66243647E-10
  0.224999994      -1.93369848E-10
  0.225999996       9.83817628E-12
  0.226999998       2.40568759E-10
  0.228000000       4.94534302E-10
  0.229000002       7.65940977E-10
  0.230000004       1.04752051E-09
  0.231000006       1.33062750E-09
  0.231999993       1.60541191E-09
  0.232999995       1.86106230E-09
  0.233999997       2.08611883E-09
  0.234999999       2.26885488E-09
  0.236000001       2.39771114E-09
  0.237000003       2.46177834E-09
  0.238000005       2.45130338E-09
  0.238999993       2.35821007E-09
  0.239999995       2.17660601E-09
  0.240999997       1.90325711E-09
  0.241999999       1.53800273E-09
  0.243000001       1.08409692E-09
  0.244000003       5.48437074E-10
  0.245000005      -5.83199530E-11
  0.246000007      -7.21787352E-10
  0.246999994      -1.42402523E-09
  0.247999996      -2.14388352E-09
  0.248999998      -2.85749624E-09
  0.250000000      -3.53893936E-09
  0.250999987      -4.16102619E-09
  0.252000004      -4.69623185E-09
  0.252999991      -5.11771026E-09
  0.254000008      -5.40038236E-09
  0.254999995      -5.52204726E-09
  0.256000012      -5.46448575E-09
  0.256999999      -5.21449817E-09
  0.257999986      -4.76484363E-09
  0.259000003      -4.11501633E-09
  0.259999990      -3.27184146E-09
  0.261000007      -2.24981989E-09
  0.261999995      -1.07121922E-09
  0.263000011       2.34138903E-10
  0.263999999       1.62939318E-09
  0.264999986       3.07147219E-09
  0.266000003       4.51222926E-09
  0.266999990       5.89985305E-09
  0.268000007       7.18053617E-09
  0.268999994       8.30034619E-09
  0.270000011       9.20723142E-09
  0.270999998       9.85310855E-09
  0.272000015       1.01959676E-08
  0.273000002       1.02018722E-08
  0.273999989       9.84681403E-09
  0.275000006       9.11831677E-09
  0.275999993       8.01670819E-09
  0.277000010       6.55601351E-09
  0.277999997       4.76435913E-09
  0.279000014       2.68390399E-09
  0.280000001       3.70209252E-10
  0.280999988      -2.10892459E-09
  0.282000005      -4.67517181E-09
  0.282999992      -7.24189464E-09
  0.284000009      -9.71681668E-09
  0.284999996      -1.20050894E-08
  0.286000013      -1.40126284E-08
  0.287000000      -1.56496522E-08
  0.287999988      -1.68342549E-08
  0.289000005      -1.74959407E-08
  0.289999992      -1.75789037E-08
  0.291000009      -1.70449610E-08
  0.291999996      -1.58760471E-08
  0.293000013      -1.40760257E-08
  0.294000000      -1.16718510E-08
  0.294999987      -8.71390693E-09
  0.296000004      -5.27549471E-09
  0.296999991      -1.45143730E-09
  0.298000008       2.64419442E-09
  0.298999995       6.88120583E-09
  0.300000012       1.11171499E-08
  0.300999999       1.52018877E-08
  0.301999986       1.89826732E-08
  0.303000003       2.23095729E-08
  0.303999990       2.50411176E-08
  0.305000007       2.70498752E-08
  0.305999994       2.82278201E-08
  0.307000011       2.84912609E-08
  0.307999998       2.77850720E-08
  0.308999985       2.60861022E-08
  0.310000002       2.34056134E-08
  0.310999990       1.97904519E-08
  0.312000006       1.53230690E-08
  0.312999994       1.01201758E-08
  0.314000010       4.33008607E-09
  0.314999998      -1.87122962E-09
  0.316000015      -8.28528801E-09
  0.317000002      -1.46972994E-08
  0.317999989      -2.08832240E-08
  0.319000006      -2.66175171E-08
  0.319999993      -3.16811999E-08
  0.321000010      -3.58701051E-08
  0.321999997      -3.90028454E-08
  0.323000014      -4.09283025E-08
  0.324000001      -4.15323491E-08
  0.324999988      -4.07433767E-08
  0.326000005      -3.85366050E-08
  0.326999992      -3.49367184E-08
  0.328000009      -3.00188638E-08
  0.328999996      -2.39078055E-08
  0.330000013      -1.67752052E-08
  0.331000000      -8.83511841E-09
  0.331999987      -3.37746997E-10
  0.333000004       8.43837178E-09
  0.333999991       1.71954646E-08
  0.335000008       2.56266670E-08
  0.335999995       3.34268222E-08
  0.337000012       4.03036182E-08
  0.338000000       4.59885676E-08
  0.338999987       5.02475395E-08
  0.340000004       5.28902611E-08
  0.340999991       5.37786207E-08
  0.342000008       5.28332045E-08
  0.342999995       5.00379471E-08
  0.344000012       4.54425440E-08
  0.344999999       3.91624866E-08
  0.345999986       3.13767607E-08
  0.347000003       2.23230110E-08
  0.347999990       1.22905286E-08
  0.349000007       1.61102032E-09
  0.349999994      -9.35235800E-09
  0.351000011      -2.02174597E-08
  0.351999998      -3.05966417E-08
  0.352999985      -4.01108053E-08
  0.354000002      -4.84034537E-08
  0.354999989      -5.51543238E-08
  0.356000006      -6.00919208E-08
  0.356999993      -6.30046273E-08
  0.358000010      -6.37498161E-08
  0.358999997      -6.22605469E-08
  0.360000014      -5.85497340E-08
  0.361000001      -5.27112682E-08
  0.361999989      -4.49183091E-08
  0.363000005      -3.54183882E-08
  0.363999993      -2.45258178E-08
  0.365000010      -1.26113271E-08
  0.365999997      -8.93920910E-11
  0.367000014       1.25963382E-08
  0.368000001       2.49889442E-08
  0.368999988       3.66350434E-08
  0.370000005       4.71016897E-08
  0.370999992       5.59928885E-08
  0.372000009       6.29649790E-08
  0.372999996       6.77403591E-08
  0.374000013       7.01189364E-08
  0.375000000       6.99868323E-08
  0.375999987       6.73219915E-08
  0.377000004       6.21964347E-08
  0.377999991       5.47748797E-08
  0.379000008       4.53098927E-08
  0.379999995       3.41335955E-08
  0.381000012       2.16462261E-08
  0.381999999       8.30185876E-09
  0.382999986      -5.40806155E-09
  0.384000003      -1.89729814E-08
  0.384999990      -3.18823723E-08
  0.386000007      -4.36452652E-08
  0.386999995      -5.38092486E-08
  0.388000011      -6.19782625E-08
  0.388999999      -6.78284806E-08
  0.389999986      -7.11216472E-08
  0.391000003      -7.17152489E-08
  0.391999990      -6.95691185E-08
  0.393000007      -6.47482210E-08
  0.393999994      -5.74213885E-08
  0.395000011      -4.78558668E-08
  0.395999998      -3.64081671E-08
  0.397000015      -2.35111806E-08
  0.398000002      -9.65819158E-09
  0.398999989       4.61566430E-09
  0.400000006       1.87538323E-08
  0.400999993       3.21998677E-08
  0.402000010       4.44192167E-08
  0.402999997       5.49204309E-08
  0.404000014       6.32749035E-08
  0.405000001       6.91344866E-08
  0.405999988       7.22460598E-08
  0.407000005       7.24625409E-08
  0.407999992       6.97499161E-08
  0.409000009       6.41898623E-08
  0.409999996       5.59777611E-08
  0.411000013       4.54163285E-08
  0.412000000       3.29047722E-08
  0.412999988       1.89241192E-08
  0.414000005       4.01902467E-09
  0.414999992      -1.12231220E-08
  0.416000009      -2.61950408E-08
  0.416999996      -4.02935321E-08
  0.418000013      -5.29434878E-08
  0.419000000      -6.36211723E-08
  0.419999987      -7.18757107E-08
  0.421000004      -7.73479059E-08
  0.421999991      -7.97857282E-08
  0.423000008      -7.90556527E-08
  0.423999995      -7.51493729E-08
  0.425000012      -6.81857912E-08
  0.425999999      -5.84077142E-08
  0.426999986      -4.61737386E-08
  0.428000003      -3.19453193E-08
  0.428999990      -1.62695848E-08
  0.430000007       2.41439063E-10
  0.430999994       1.69345622E-08
  0.432000011       3.31410384E-08
  0.432999998       4.82031730E-08
  0.433999985       6.15008062E-08
  0.435000002       7.24766949E-08
  0.435999990       8.06596390E-08
  0.437000006       8.56845688E-08
  0.437999994       8.73085853E-08
  0.439000010       8.54223998E-08
  0.439999998       8.00565942E-08
  0.441000015       7.13823241E-08
  0.442000002       5.97065224E-08
  0.442999989       4.54614693E-08
  0.444000006       2.91894988E-08
  0.444999993       1.15228040E-08
  0.446000010      -6.84039847E-09
  0.446999997      -2.51627572E-08
  0.448000014      -4.26965734E-08
  0.449000001      -5.87133933E-08
  0.449999988      -7.25333393E-08
  0.451000005      -8.35528056E-08
  0.451999992      -9.12696692E-08
  0.453000009      -9.53047632E-08
  0.453999996      -9.54188621E-08
  0.455000013      -9.15244343E-08
  0.456000000      -8.36914538E-08
  0.456999987      -7.21473512E-08
  0.458000004      -5.72706682E-08
  0.458999991      -3.95786621E-08
  0.460000008      -1.97095193E-08
  0.460999995       1.60057567E-09
  0.462000012       2.35443611E-08
  0.463000000       4.52736089E-08
  0.463999987       6.59311894E-08
  0.465000004       8.46839612E-08
  0.465999991       1.00755038E-07
  0.467000008       1.13454519E-07
  0.467999995       1.22207126E-07
  0.469000012       1.26575827E-07
  0.469999999       1.26280540E-07
  0.470999986       1.21211031E-07
  0.472000003       1.11433593E-07
  0.472999990       9.71910197E-08
  0.474000007       7.88960435E-08
  0.474999994       5.71182497E-08
  0.476000011       3.25649232E-08
  0.476999998       6.05663253E-09
  0.477999985      -2.15016396E-08
  0.479000002      -4.91528134E-08
  0.479999989      -7.59222445E-08
  0.481000006      -1.00853093E-07
  0.481999993      -1.23041360E-07
  0.483000010      -1.41669176E-07
  0.483999997      -1.56035298E-07
  0.485000014      -1.65581113E-07
  0.486000001      -1.69911971E-07
  0.486999989      -1.68812363E-07
  0.488000005      -1.62254779E-07
  0.488999993      -1.50401561E-07
  0.490000010      -1.33600196E-07
  0.490999997      -1.12371389E-07
  0.492000014      -8.73913919E-08
  0.493000001      -5.94685190E-08
  0.493999988      -2.95145792E-08
  0.495000005       1.48690071E-09
  0.495999992       3.25152598E-08
  0.497000009       6.25485370E-08
  0.497999996       9.05991797E-08
  0.499000013       1.15748485E-07
  0.500000000       1.37178304E-07
  0.500999987       1.54199270E-07
  0.501999974       1.66274063E-07
  0.503000021       1.73035303E-07
  0.504000008       1.74297170E-07
  0.504999995       1.70060488E-07
  0.505999982       1.60511505E-07
  0.507000029       1.46013747E-07
  0.508000016       1.27093827E-07
  0.509000003       1.04421794E-07
  0.509999990       7.87866696E-08
  0.510999978       5.10678326E-08
  0.512000024       2.22039933E-08
  0.513000011      -6.83985313E-09
  0.513999999      -3.51056713E-08
  0.514999986      -6.16750029E-08
  0.515999973      -8.56996110E-08
  0.517000020      -1.06429347E-07
  0.518000007      -1.23236006E-07
  0.518999994      -1.35632590E-07
  0.519999981      -1.43287238E-07
  0.521000028      -1.46031695E-07
  0.522000015      -1.43863943E-07
  0.523000002      -1.36944919E-07
  0.523999989      -1.25589963E-07
  0.524999976      -1.10254980E-07
  0.526000023      -9.15182028E-08
  0.527000010      -7.00582419E-08
  0.527999997      -4.66292853E-08
  0.528999984      -2.20343956E-08
  0.529999971       2.90229507E-09
  0.531000018       2.73630558E-08
  0.532000005       5.05633615E-08
  0.532999992       7.17765403E-08
  0.533999979       9.03559183E-08
  0.535000026       1.05753614E-07
  0.536000013       1.17535478E-07
  0.537000000       1.25391793E-07
  0.537999988       1.29143615E-07
  0.538999975       1.28744560E-07
  0.540000021       1.24278316E-07
  0.541000009       1.15952176E-07
  0.541999996       1.04086524E-07
  0.542999983       8.91015333E-08
  0.544000030       7.15010628E-08
  0.545000017       5.18544674E-08
  0.546000004       3.07773256E-08
  0.546999991       8.91141472E-09
  0.547999978      -1.30951712E-08
  0.549000025      -3.46073783E-08
  0.550000012      -5.50211787E-08
  0.550999999      -7.37799795E-08
  0.551999986      -9.03885606E-08
  0.552999973      -1.04425268E-07
  0.554000020      -1.15550833E-07
  0.555000007      -1.23514980E-07
  0.555999994      -1.28160039E-07
  0.556999981      -1.29421878E-07
  0.558000028      -1.27328590E-07
  0.559000015      -1.21996365E-07
  0.560000002      -1.13623734E-07
  0.560999990      -1.02483668E-07
  0.561999977      -8.89145682E-08
  0.563000023      -7.33097281E-08
  0.564000010      -5.61061348E-08
  0.564999998      -3.77726792E-08
  0.565999985      -1.87979303E-08
  0.566999972       3.21640020E-10
  0.568000019       1.90938785E-08
  0.569000006       3.70422839E-08
  0.569999993       5.37169456E-08
  0.570999980       6.87046509E-08
  0.572000027       8.16381487E-08
  0.573000014       9.22045515E-08
  0.574000001       1.00152107E-07
  0.574999988       1.05296557E-07
  0.575999975       1.07525551E-07
  0.577000022       1.06801501E-07
  0.578000009       1.03163579E-07
  0.578999996       9.67276250E-08
  0.579999983       8.76843913E-08
  0.580999970       7.62962316E-08
  0.582000017       6.28917718E-08
  0.583000004       4.78590962E-08
  0.583999991       3.16370254E-08
  0.584999979       1.47045469E-08
  0.586000025      -2.43079223E-09
  0.587000012      -1.92462277E-08
  0.588000000      -3.52180436E-08
  0.588999987      -4.98365651E-08
  0.589999974      -6.26215240E-08
  0.591000021      -7.31373362E-08
  0.592000008      -8.10079754E-08
  0.592999995      -8.59308358E-08
  0.593999982      -8.76887896E-08
  0.595000029      -8.61606324E-08
  0.596000016      -8.13287357E-08
  0.597000003      -7.32839212E-08
  0.597999990      -6.22272296E-08
  0.598999977      -4.84675660E-08
  0.600000024      -3.24165974E-08
  0.601000011      -1.45790944E-08
  0.601999998       4.45994264E-09
  0.602999985       2.40515892E-08
  0.603999972       4.35022507E-08
  0.605000019       6.20957152E-08
  0.606000006       7.91164467E-08
  0.606999993       9.38747604E-08
  0.607999980       1.05731594E-07
  0.609000027       1.14122948E-07
  0.610000014       1.18582939E-07
  0.611000001       1.18764184E-07
  0.611999989       1.14454870E-07
  0.612999976       1.05592264E-07
  0.614000022       9.22705041E-08
  0.615000010       7.47442783E-08
  0.615999997       5.34258682E-08
  0.616999984       2.88772952E-08
  0.617999971       1.79594273E-09
  0.619000018      -2.70044751E-08
  0.620000005      -5.66183118E-08
  0.620999992      -8.60767457E-08
  0.621999979      -1.14379240E-07
  0.623000026      -1.40528329E-07
  0.624000013      -1.63564181E-07
  0.625000000      -1.82600459E-07
  0.625999987      -1.96857613E-07
  0.626999974      -2.05693922E-07
  0.628000021      -2.08632741E-07
  0.629000008      -2.05384140E-07
  0.629999995      -1.95860906E-07
  0.630999982      -1.80187669E-07
  0.632000029      -1.58702321E-07
  0.633000016      -1.31950372E-07
  0.634000003      -1.00670732E-07
  0.634999990      -6.57756587E-08
  0.635999978      -2.83218142E-08
  0.637000024       1.05221378E-08
  0.638000011       4.95151085E-08
  0.638999999       8.73848975E-08
  0.639999986       1.22872635E-07
  0.640999973       1.54777510E-07
  0.642000020       1.81999724E-07
  0.643000007       2.03581791E-07
  0.643999994       2.18744432E-07
  0.644999981       2.26917237E-07
  0.646000028       2.27762698E-07
  0.647000015       2.21191343E-07
  0.648000002       2.07368515E-07
  0.648999989       1.86713109E-07
  0.649999976       1.59885388E-07
  0.651000023       1.27766825E-07
  0.652000010       9.14316303E-08
  0.652999997       5.21107353E-08
  0.653999984       1.11499485E-08
  0.654999971      -3.00372349E-08
  0.656000018      -7.00189702E-08
  0.657000005      -1.07396389E-07
  0.657999992      -1.40854056E-07
  0.658999979      -1.69207382E-07
  0.660000026      -1.91446361E-07
  0.661000013      -2.06773393E-07
  0.662000000      -2.14633474E-07
  0.662999988      -2.14735138E-07
  0.663999975      -2.07063479E-07
  0.665000021      -1.91882179E-07
  0.666000009      -1.69725197E-07
  0.666999996      -1.41379545E-07
  0.667999983      -1.07857872E-07
  0.669000030      -7.03633916E-08
  0.670000017      -3.02466603E-08
  0.671000004       1.10420348E-08
  0.671999991       5.20044807E-08
  0.672999978       9.11485003E-08
  0.674000025       1.27042085E-07
  0.675000012       1.58364770E-07
  0.675999999       1.83955223E-07
  0.676999986       2.02854523E-07
  0.677999973       2.14339479E-07
  0.679000020       2.17949420E-07
  0.680000007       2.13503768E-07
  0.680999994       2.01107596E-07
  0.681999981       1.81148650E-07
  0.683000028       1.54282915E-07
  0.684000015       1.21411347E-07
  0.685000002       8.36469738E-08
  0.685999990       4.22749622E-08
  0.686999977      -1.29299926E-09
  0.688000023      -4.55701077E-08
  0.689000010      -8.90472336E-08
  0.689999998      -1.30246221E-07
  0.690999985      -1.67772797E-07
  0.691999972      -2.00365520E-07
  0.693000019      -2.26939505E-07
  0.694000006      -2.46623387E-07
  0.694999993      -2.58790038E-07
  0.695999980      -2.63076174E-07
  0.697000027      -2.59393033E-07
  0.698000014      -2.47927829E-07
  0.699000001      -2.29134670E-07
  0.699999988      -2.03715999E-07
  0.700999975      -1.72595747E-07
  0.702000022      -1.36884907E-07
  0.703000009      -9.78395889E-08
  0.703999996      -5.68163898E-08
  0.704999983      -1.52230566E-08
  0.705999970       2.55316532E-08
  0.707000017       6.40867270E-08
  0.708000004       9.91762690E-08
  0.708999991       1.29672898E-07
  0.709999979       1.54623692E-07
  0.711000025       1.73283325E-07
  0.712000012       1.85134454E-07
  0.713000000       1.89904199E-07
  0.713999987       1.87569682E-07
  0.714999974       1.78352693E-07
  0.716000021       1.62711061E-07
  0.717000008       1.41316121E-07
  0.717999995       1.15027689E-07
  0.718999982       8.48590673E-08
  0.720000029       5.19408587E-08
  0.721000016       1.74782162E-08
  0.722000003      -1.72912813E-08
  0.722999990      -5.11404288E-08
  0.723999977      -8.28975075E-08
  0.725000024      -1.11481128E-07
  0.726000011      -1.35941377E-07
  0.726999998      -1.55483932E-07
  0.727999985      -1.69499614E-07
  0.728999972      -1.77579480E-07
  0.730000019      -1.79525699E-07
  0.731000006      -1.75353719E-07
  0.731999993      -1.65289038E-07
  0.732999980      -1.49755891E-07
  0.734000027      -1.29358511E-07
  0.735000014      -1.04859545E-07
  0.736000001      -7.71498279E-08
  0.736999989      -4.72190429E-08
  0.737999976      -1.61206302E-08
  0.739000022       1.50656980E-08
  0.740000010       4.52647342E-08
  0.740999997       7.34453280E-08
  0.741999984       9.86491244E-08
  0.742999971       1.20022463E-07
  0.744000018       1.36840754E-07
  0.745000005       1.48528770E-07
  0.745999992       1.54677267E-07
  0.746999979       1.55053783E-07
  0.748000026       1.49606308E-07
  0.749000013       1.38462582E-07
  0.750000000       1.21924771E-07
  0.750999987       1.00458195E-07
  0.751999974       7.46769686E-08
  0.753000021       4.53199078E-08
  0.754000008       1.32320803E-08
  0.754999995      -2.06595345E-08
  0.755999982      -5.53790400E-08
  0.757000029      -8.99233754E-08
  0.758000016      -1.23294313E-07
  0.759000003      -1.54527228E-07
  0.759999990      -1.82713919E-07
  0.760999978      -2.07029984E-07
  0.762000024      -2.26757223E-07
  0.763000011      -2.41301137E-07
  0.763999999      -2.50208899E-07
  0.764999986      -2.53179991E-07
  0.765999973      -2.50075402E-07
  0.767000020      -2.40922361E-07
  0.768000007      -2.25912359E-07
  0.768999994      -2.05398834E-07
  0.769999981      -1.79888175E-07
  0.771000028      -1.50029010E-07
  0.772000015      -1.16594315E-07
  0.773000002      -8.04636713E-08
  0.773999989      -4.26040785E-08
  0.774999976      -4.04060074E-09
  0.776000023       3.41659181E-08
  0.777000010       7.09488646E-08
  0.777999997       1.05258593E-07
  0.778999984       1.36100340E-07
  0.779999971       1.62551132E-07
  0.781000018       1.83794228E-07
  0.782000005       1.99138697E-07
  0.782999992       2.08044042E-07
  0.783999979       2.10133479E-07
  0.785000026       2.05217233E-07
  0.786000013       1.93292095E-07
  0.787000000       1.74551730E-07
  0.787999988       1.49389365E-07
  0.788999975       1.18384875E-07
  0.790000021       8.22987829E-08
  0.791000009       4.20549995E-08
  0.791999996      -1.28328859E-09
  0.792999983      -4.65388617E-08
  0.794000030      -9.24494330E-08
  0.795000017      -1.37705328E-07
  0.796000004      -1.80984202E-07
  0.796999991      -2.20989477E-07
  0.797999978      -2.56488931E-07
  0.799000025      -2.86354265E-07
  0.800000012      -3.09598306E-07
  0.800999999      -3.25404784E-07
  0.801999986      -3.33161182E-07
  0.802999973      -3.32477356E-07
  0.804000020      -3.23213300E-07
  0.805000007      -3.05477215E-07
  0.805999994      -2.79640091E-07
  0.806999981      -2.46320212E-07
  0.808000028      -2.06379099E-07
  0.809000015      -1.60897031E-07
  0.810000002      -1.11145788E-07
  0.810999990      -5.85502953E-08
  0.811999977      -4.65090322E-09
  0.813000023       4.89391105E-08
  0.814000010       1.00588565E-07
  0.814999998       1.48700323E-07
  0.815999985       1.91751454E-07
  0.816999972       2.28355276E-07
  0.818000019       2.57297927E-07
  0.819000006       2.77587077E-07
  0.819999993       2.88481829E-07
  0.820999980       2.89523001E-07
  0.822000027       2.80554275E-07
  0.823000014       2.61724438E-07
  0.824000001       2.33496436E-07
  0.824999988       1.96627283E-07
  0.825999975       1.52155053E-07
  0.827000022       1.01367213E-07
  0.828000009       4.57550655E-08
  0.828999996      -1.30240236E-08
  0.829999983      -7.32017327E-08
  0.830999970      -1.32957666E-07
  0.832000017      -1.90474324E-07
  0.833000004      -2.44001285E-07
  0.833999991      -2.91907725E-07
  0.834999979      -3.32742530E-07
  0.836000025      -3.65280414E-07
  0.837000012      -3.88562938E-07
  0.838000000      -4.01932340E-07
  0.838999987      -4.05055459E-07
  0.839999974      -3.97938123E-07
  0.841000021      -3.80919346E-07
  0.842000008      -3.54662603E-07
  0.842999995      -3.20144125E-07
  0.843999982      -2.78608127E-07
  0.845000029      -2.31528787E-07
  0.846000016      -1.80562353E-07
  0.847000003      -1.27492186E-07
  0.847999990      -7.41594732E-08
  0.848999977      -2.24111325E-08
  0.850000024       2.59712163E-08
  0.851000011       6.93259778E-08
  0.851999998       1.06180153E-07
  0.852999985       1.35286726E-07
  0.853999972       1.55673177E-07
  0.855000019       1.66681502E-07
  0.856000006       1.67979948E-07