   0.00000000       0.00000000    
   1.00000005E-03   0.00000000    
   2.00000009E-03   0.00000000    
   3.00000003E-03   0.00000000    
   4.00000019E-03   0.00000000    
   4.99999989E-03   0.00000000    
   6.00000005E-03   0.00000000    
   7.00000022E-03   0.00000000    
   8.00000038E-03   0.00000000    
   8.99999961E-03   0.00000000    
   9.99999978E-03   0.00000000    
   1.09999999E-02   0.00000000    
   1.20000001E-02   0.00000000    
   1.30000003E-02   0.00000000    
   1.40000004E-02   0.00000000    
   1.49999997E-02  -9.18318976E-38
   1.60000008E-02  -4.68134312E-37
   1.70000009E-02  -1.81147597E-36
   1.79999992E-02  -6.15070603E-36
   1.89999994E-02  -1.90390926E-35
   1.99999996E-02  -5.46441923E-35
   2.09999997E-02  -1.46889430E-34
   2.19999999E-02  -3.72570294E-34
   2.30000000E-02  -8.96969505E-34
   2.40000002E-02  -2.05984685E-33
   2.50000004E-02  -4.53082285E-33
   2.60000005E-02  -9.57923791E-33
   2.70000007E-02  -1.95255563E-32
   2.80000009E-02  -3.84696924E-32
   2.89999992E-02  -7.34256266E-32
   2.99999993E-02  -1.36028500E-31
   3.09999995E-02  -2.45014447E-31
   3.20000015E-02  -4.29693920E-31
   3.29999998E-02  -7.34630320E-31
   3.40000018E-02  -1.22567329E-30
   3.50000001E-02  -1.99734640E-30
   3.59999985E-02  -3.18131315E-30
   3.70000005E-02  -4.95518340E-30
   3.79999988E-02  -7.55023445E-30
   3.90000008E-02  -1.12556198E-29
   3.99999991E-02  -1.64152922E-29
   4.10000011E-02  -2.34121325E-29
   4.19999994E-02  -3.26316359E-29
   4.30000015E-02  -4.43949873E-29
   4.39999998E-02  -5.88486432E-29
   4.50000018E-02  -7.57947563E-29
   4.60000001E-02  -9.44442822E-29
   4.69999984E-02  -1.13073032E-28
   4.80000004E-02  -1.28560590E-28
   4.89999987E-02  -1.35794143E-28
   5.00000007E-02  -1.26924681E-28
   5.09999990E-02  -9.04724369E-29
   5.20000011E-02  -1.02940218E-29
   5.29999994E-02   1.35554304E-28
   5.40000014E-02   3.75993381E-28
   5.49999997E-02   7.48035572E-28
   5.60000017E-02   1.29768813E-27
   5.70000000E-02   2.08044230E-27
   5.79999983E-02   3.16108428E-27
   5.90000004E-02   4.61250322E-27
   5.99999987E-02   6.51310526E-27
   6.10000007E-02   8.94239780E-27
   6.19999990E-02   1.19742691E-26
   6.30000010E-02   1.56674740E-26
   6.40000030E-02   2.00528920E-26
   6.49999976E-02   2.51171787E-26
   6.59999996E-02   3.07826190E-26
   6.70000017E-02   3.68831947E-26
   6.80000037E-02   4.31372439E-26
   6.89999983E-02   4.91174844E-26
   7.00000003E-02   5.42197166E-26
   7.10000023E-02   5.76321871E-26
   7.19999969E-02   5.83082717E-26
   7.29999989E-02   5.49458938E-26
   7.40000010E-02   4.59779474E-26
   7.50000030E-02   2.95787402E-26
   7.59999976E-02   3.69197034E-27
   7.69999996E-02  -3.39136110E-26
   7.80000016E-02  -8.55547447E-26
   7.90000036E-02  -1.53504481E-25
   7.99999982E-02  -2.39818251E-25
   8.10000002E-02  -3.46111711E-25
   8.20000023E-02  -4.73288785E-25
   8.29999968E-02  -6.21221948E-25
   8.39999989E-02  -7.88390399E-25
   8.50000009E-02  -9.71486544E-25
   8.60000029E-02  -1.16500724E-24
   8.69999975E-02  -1.36085211E-24
   8.79999995E-02  -1.54795868E-24
   8.90000015E-02  -1.71200960E-24
   9.00000036E-02  -1.83525512E-24
   9.09999982E-02  -1.89649892E-24
   9.20000002E-02  -1.87129837E-24
   9.30000022E-02  -1.73243400E-24
   9.39999968E-02  -1.45069815E-24
   9.49999988E-02  -9.96051869E-25
   9.60000008E-02  -3.39184699E-25
   9.70000029E-02   5.46500451E-25
   9.79999974E-02   1.68247781E-24
   9.89999995E-02   3.08229097E-24
  0.100000001       4.74840504E-24
  0.101000004       6.66882026E-24
  0.101999998       8.81358238E-24
  0.103000000       1.11313780E-23
  0.104000002       1.35464473E-23
  0.104999997       1.59560797E-23
  0.105999999       1.82290183E-23
  0.107000001       2.02051054E-23
  0.108000003       2.16965179E-23
  0.108999997       2.24909719E-23
  0.109999999       2.23571890E-23
  0.111000001       2.10529321E-23
  0.112000003       1.83357875E-23
  0.112999998       1.39767867E-23
  0.114000000       7.77678960E-24
  0.115000002      -4.14603204E-25
  0.115999997      -1.06780622E-23
  0.116999999      -2.30021774E-23
  0.118000001      -3.72606521E-23
  0.119000003      -5.31902718E-23
  0.119999997      -7.03710817E-23
  0.120999999      -8.82104327E-23
  0.122000001      -1.05932774E-22
  0.123000003      -1.22577196E-22
  0.123999998      -1.37004604E-22
  0.125000000      -1.47916645E-22
  0.126000002      -1.53887969E-22
  0.127000004      -1.53413213E-22
  0.128000006      -1.44969726E-22
  0.128999993      -1.27096044E-22
  0.129999995      -9.84856363E-23
  0.130999997      -5.80942288E-23
  0.131999999      -5.25802102E-24
  0.133000001       6.01812266E-23
  0.134000003       1.37749402E-22
  0.135000005       2.26218095E-22
  0.136000007       3.23495121E-22
  0.136999995       4.26536359E-22
  0.137999997       5.31288303E-22
  0.138999999       6.32671141E-22
  0.140000001       7.24612690E-22
  0.141000003       8.00142045E-22
  0.142000005       8.51551744E-22
  0.143000007       8.70634353E-22
  0.143999994       8.48997501E-22
  0.144999996       7.78457938E-22
  0.145999998       6.51511008E-22
  0.147000000       4.61867130E-22
  0.148000002       2.05042165E-22
  0.149000004      -1.21017549E-22
  0.150000006      -5.15300301E-22
  0.150999993      -9.73114680E-22
  0.151999995      -1.48553116E-21
  0.152999997      -2.03892044E-21
  0.153999999      -2.61463108E-21
  0.155000001      -3.18885174E-21
  0.156000003      -3.73270341E-21
  0.157000005      -4.21260266E-21
  0.158000007      -4.59093399E-21
  0.158999994      -4.82706012E-21
  0.159999996      -4.87868702E-21
  0.160999998      -4.70359049E-21
  0.162000000      -4.26168460E-21
  0.163000003      -3.51740622E-21
  0.164000005      -2.44235779E-21
  0.165000007      -1.01812696E-21
  0.165999994       7.60812848E-22
  0.166999996       2.88424935E-21
  0.167999998       5.32357246E-21
  0.169000000       8.02947452E-21
  0.170000002       1.09301845E-20
  0.171000004       1.39304275E-20
  0.172000006       1.69112973E-20
  0.172999993       1.97312077E-20
  0.173999995       2.22281008E-20
  0.174999997       2.42230165E-20
  0.175999999       2.55251393E-20
  0.177000001       2.59383290E-20
  0.178000003       2.52691172E-20
  0.179000005       2.33360753E-20
  0.180000007       1.99803457E-20
  0.180999994       1.50770808E-20
  0.181999996       8.54741964E-21
  0.182999998       3.70541876E-22
  0.184000000      -9.40472691E-21
  0.185000002      -2.06493830E-20
  0.186000004      -3.31454341E-20
  0.187000006      -4.65795387E-20
  0.187999994      -6.05397851E-20
  0.188999996      -7.45163135E-20
  0.189999998      -8.79064289E-20
  0.191000000      -1.00024741E-19
  0.192000002      -1.10118703E-19
  0.193000004      -1.17389828E-19
  0.194000006      -1.21020608E-19
  0.194999993      -1.20206856E-19
  0.195999995      -1.14194933E-19
  0.196999997      -1.02323127E-19
  0.197999999      -8.40659521E-20
  0.199000001      -5.90799858E-20
  0.200000003      -2.72494103E-20
  0.201000005       1.12707276E-20
  0.202000007       5.60158051E-20
  0.202999994       1.06179921E-19
  0.203999996       1.60593652E-19
  0.204999998       2.17713834E-19
  0.206000000       2.75627669E-19
  0.207000002       3.32073182E-19
  0.208000004       3.84478021E-19
  0.209000006       4.30017622E-19
  0.209999993       4.65693172E-19
  0.210999995       4.88429369E-19
  0.211999997       4.95190950E-19
  0.213000000       4.83115561E-19
  0.214000002       4.49660292E-19
  0.215000004       3.92757349E-19
  0.216000006       3.10974053E-19
  0.216999993       2.03670944E-19
  0.217999995       7.11507417E-20
  0.218999997      -8.52089089E-20
  0.219999999      -2.62847419E-19
  0.221000001      -4.57945850E-19
  0.222000003      -6.65392305E-19
  0.223000005      -8.78795545E-19
  0.224000007      -1.09055327E-18
  0.224999994      -1.29198053E-18
  0.225999996      -1.47350129E-18
  0.226999998      -1.62490501E-18
  0.228000000      -1.73566605E-18
  0.229000002      -1.79532314E-18
  0.230000004      -1.79391073E-18
  0.231000006      -1.72243271E-18
  0.231999993      -1.57336401E-18
  0.232999995      -1.34116531E-18
  0.233999997      -1.02278991E-18
  0.234999999      -6.18161584E-19
  0.236000001      -1.30600329E-19
  0.237000003       4.32829080E-19
  0.238000005       1.06107038E-18
  0.238999993       1.73895492E-18
  0.239999995       2.44722894E-18
  0.240999997       3.16274741E-18
  0.241999999       3.85885132E-18
  0.243000001       4.50593487E-18
  0.244000003       5.07220782E-18
  0.245000005       5.52464873E-18
  0.246000007       5.83013439E-18
  0.246999994       5.95672446E-18
  0.247999996       5.87507263E-18
  0.248999998       5.55992178E-18
  0.250000000       4.99163630E-18
  0.250999987       4.15771416E-18
  0.252000004       3.05421821E-18
  0.252999991       1.68705668E-18
  0.254000008       7.30453214E-20
  0.254999995      -1.75932031E-18
  0.256000012      -3.76944923E-18
  0.256999999      -5.90466171E-18
  0.257999986      -8.10066163E-18
  0.259000003      -1.02825267E-17
  0.259999990      -1.23662377E-17
  0.261000007      -1.42607493E-17
  0.261999995      -1.58705999E-17
  0.263000011      -1.70990094E-17
  0.263999999      -1.78514262E-17
  0.264999986      -1.80394145E-17
  0.266000003      -1.75847994E-17
  0.266999990      -1.64239192E-17
  0.268000007      -1.45118284E-17
  0.268999994      -1.18263162E-17
  0.270000011      -8.37152275E-18
  0.270999998      -4.18098978E-18
  0.272000015       6.80053668E-19
  0.273000002       6.11333953E-18
  0.273999989       1.19873112E-17
  0.275000006       1.81381104E-17
  0.275999993       2.43719255E-17
  0.277000010       3.04687380E-17
  0.277999997       3.61875140E-17
  0.279000014       4.12728086E-17
  0.280000001       4.54626637E-17
  0.280999988       4.84976886E-17
  0.282000005       5.01310792E-17
  0.282999992       5.01393080E-17
  0.284000009       4.83331591E-17
  0.284999996       4.45687263E-17
  0.286000013       3.87579612E-17
  0.287000000       3.08782751E-17
  0.287999988       2.09808059E-17
  0.289000005       9.19679340E-18
  0.289999992      -4.25831049E-18
  0.291000009      -1.90834439E-17
  0.291999996      -3.48935818E-17
  0.293000013      -5.12247178E-17
  0.294000000      -6.75423278E-17
  0.294999987      -8.32533927E-17
  0.296000004      -9.77219463E-17
  0.296999991      -1.10287819E-16
  0.298000008      -1.20288393E-16
  0.298999995      -1.27082749E-16
  0.300000012      -1.30077553E-16
  0.300999999      -1.28754024E-16
  0.301999986      -1.22694866E-16
  0.303000003      -1.11610434E-16
  0.303999990      -9.53628007E-17
  0.305000007      -7.39867927E-17
  0.305999994      -4.77068808E-17
  0.307000011      -1.69487504E-17
  0.307999998       1.76552934E-17
  0.308999985       5.52679701E-17
  0.310000002       9.48564007E-17
  0.310999990       1.35209606E-16
  0.312000006       1.74964330E-16
  0.312999994       2.12639032E-16
  0.314000010       2.46675741E-16
  0.314999998       2.75488731E-16
  0.316000015       2.97519264E-16
  0.317000002       3.11294746E-16
  0.317999989       3.15490550E-16
  0.319000006       3.08992696E-16
  0.319999993       2.90958835E-16
  0.321000010       2.60875480E-16
  0.321999997       2.18608933E-16
  0.323000014       1.64447212E-16
  0.324000001       9.91308599E-17
  0.324999988       2.38703447E-17
  0.326000005      -5.96519578E-17
  0.326999992      -1.49296532E-16
  0.328000009      -2.42499498E-16
  0.328999996      -3.36323723E-16
  0.330000013      -4.27528286E-16
  0.331000000      -5.12655309E-16
  0.331999987      -5.88132880E-16
  0.333000004      -6.50391337E-16
  0.333999991      -6.95990826E-16
  0.335000008      -7.21755345E-16
  0.335999995      -7.24910278E-16
  0.337000012      -7.03217764E-16
  0.338000000      -6.55105446E-16
  0.338999987      -5.79783147E-16
  0.340000004      -4.77342294E-16
  0.340999991      -3.48832679E-16
  0.342000008      -1.96312353E-16
  0.342999995      -2.28659257E-17
  0.344000012       1.67411827E-16
  0.344999999       3.69469657E-16
  0.345999986       5.77392026E-16
  0.347000003       7.84530068E-16
  0.347999990       9.83669844E-16
  0.349000007       1.16723501E-15
  0.349999994       1.32751990E-15
  0.351000011       1.45694739E-15
  0.351999998       1.54834393E-15
  0.352999985       1.59522435E-15
  0.354000002       1.59207625E-15
  0.354999989       1.53463428E-15
  0.356000006       1.42013480E-15
  0.356999993       1.24753797E-15
  0.358000010       1.01770903E-15
  0.358999997       7.33547949E-16
  0.360000014       4.00058849E-16
  0.361000001       2.43519375E-17
  0.361999989      -3.84427544E-16
  0.363000005      -8.15246765E-16
  0.363999993      -1.25541030E-15
  0.365000010      -1.69086051E-15
  0.365999997      -2.10654913E-15
  0.367000014      -2.48687243E-15
  0.368000001      -2.81616093E-15
  0.368999988      -3.07920850E-15
  0.370000005      -3.26182795E-15
  0.370999992      -3.35141397E-15
  0.372000009      -3.33749701E-15
  0.372999996      -3.21226361E-15
  0.374000013      -2.97102905E-15
  0.375000000      -2.61263586E-15
  0.375999987      -2.13976404E-15
  0.377000004      -1.55913270E-15
  0.377999991      -8.81578339E-16
  0.379000008      -1.22000127E-16
  0.379999995       7.00838343E-16
  0.381000012       1.56465271E-15
  0.381999999       2.44412606E-15
  0.382999986       3.31153629E-15
  0.384000003       4.13750988E-15
  0.384999990       4.89188547E-15
  0.386000007       5.54466624E-15
  0.386999995       6.06703484E-15
  0.388000011       6.43239827E-15
  0.388999999       6.61743347E-15
  0.389999986       6.60309532E-15
  0.391000003       6.37554796E-15
  0.391999990       5.92698938E-15
  0.393000007       5.25632691E-15
  0.393999994       4.36967442E-15
  0.395000011       3.28064310E-15
  0.395999998       2.01039797E-15
  0.397000015       5.87469018E-16
  0.398000002      -9.52698719E-16
  0.398999989      -2.56845377E-15
  0.400000006      -4.21290132E-15
  0.400999993      -5.83510367E-15
  0.402000010      -7.38149149E-15
  0.402999997      -8.79745275E-15
  0.404000014      -1.00290607E-14
  0.405000001      -1.10248860E-14
  0.405999988      -1.17378412E-14
  0.407000005      -1.21269936E-14
  0.407999992      -1.21592952E-14
  0.409000009      -1.18111494E-14
  0.409999996      -1.10697652E-14
  0.411000013      -9.93424127E-15
  0.412000000      -8.41631588E-15
  0.412999988      -6.54075411E-15
  0.414000005      -4.34532137E-15
  0.414999992      -1.88033395E-15
  0.416000009       7.92232457E-16
  0.416999996       3.60006706E-15
  0.418000013       6.46226635E-15
  0.419000000       9.29145507E-15
  0.419999987       1.19962456E-14
  0.421000004       1.44839602E-14
  0.421999991       1.66635589E-14
  0.423000008       1.84486690E-14
  0.423999995       1.97606400E-14
  0.425000012       2.05315060E-14
  0.425999999       2.07067707E-14
  0.426999986       2.02479008E-14
  0.428000003       1.91344370E-14
  0.428999990       1.73656306E-14
  0.430000007       1.49615309E-14
  0.430999994       1.19634501E-14
  0.432000011       8.43376730E-15
  0.432999998       4.45503924E-15
  0.433999985       1.28413517E-16
  0.435000002      -4.42864400E-15
  0.435999990      -9.08526353E-15
  0.437000006      -1.37006639E-14
  0.437999994      -1.81281449E-14
  0.439000010      -2.22194699E-14
  0.439999998      -2.58295091E-14
  0.441000015      -2.88210245E-14
  0.442000002      -3.10694226E-14
  0.442999989      -3.24673455E-14
  0.444000006      -3.29289242E-14
  0.444999993      -3.23935452E-14
  0.446000010      -3.08289940E-14
  0.446999997      -2.82338511E-14
  0.448000014      -2.46389856E-14
  0.449000001      -2.01081251E-14
  0.449999988      -1.47373806E-14
  0.451000005      -8.65372905E-15
  0.451999992      -2.01244567E-15
  0.453000009       5.00648014E-15
  0.453999996       1.22028767E-14
  0.455000013       1.93617552E-14
  0.456000000       2.62593969E-14
  0.456999987       3.26699693E-14
  0.458000004       3.83724966E-14
  0.458999991       4.31579990E-14
  0.460000008       4.68365547E-14
  0.460999995       4.92440392E-14
  0.462000012       5.02483865E-14
  0.463000000       4.97550711E-14
  0.463999987       4.77116651E-14
  0.465000004       4.41112668E-14
  0.465999991       3.89946457E-14
  0.467000008       3.24509876E-14
  0.467999995       2.46171746E-14
  0.469000012       1.56755492E-14
  0.469999999       5.85018086E-15
  0.470999986      -4.59830894E-15
  0.472000003      -1.53792486E-14
  0.472999990      -2.61796081E-14
  0.474000007      -3.66726641E-14
  0.474999994      -4.65274249E-14
  0.476000011      -5.54185468E-14
  0.476999998      -6.30364494E-14
  0.477999985      -6.90973293E-14
  0.479000002      -7.33527686E-14
  0.479999989      -7.55985850E-14
  0.481000006      -7.56827191E-14
  0.481999993      -7.35117601E-14
  0.483000010      -6.90560144E-14
  0.483999997      -6.23527448E-14
  0.485000014      -5.35075863E-14
  0.486000001      -4.26938893E-14
  0.486999989      -3.01500531E-14
  0.488000005      -1.61748209E-14
  0.488999993      -1.12059981E-15
  0.490000010       1.46150385E-14
  0.490999997       3.05994786E-14
  0.492000014       4.63765514E-14
  0.493000001       6.14791082E-14
  0.493999988       7.54423176E-14
  0.495000005       8.78173199E-14
  0.495999992       9.81848608E-14
  0.497000009       1.06168492E-13
  0.497999996       1.11446917E-13
  0.499000013       1.13765131E-13
  0.500000000       1.12943976E-13
  0.500999987       1.08887793E-13
  0.501999974       1.01589886E-13
  0.503000021       9.11356087E-14
  0.504000008       7.77028791E-14
  0.504999995       6.15600778E-14
  0.505999982       4.30612577E-14
  0.507000029       2.26388596E-14
  0.508000016       7.93899418E-16
  0.509000003      -2.19160119E-14
  0.509999990      -4.48905914E-14
  0.510999978      -6.75024137E-14
  0.512000024      -8.91136394E-14
  0.513000011      -1.09093466E-13
  0.513999999      -1.26835879E-13
  0.514999986      -1.41777256E-13
  0.515999973      -1.53413171E-13
  0.517000020      -1.61314050E-13
  0.518000007      -1.65139251E-13
  0.518999994      -1.64648948E-13
  0.519999981      -1.59713700E-13
  0.521000028      -1.50321108E-13
  0.522000015      -1.36579550E-13
  0.523000002      -1.18718688E-13
  0.523999989      -9.70867199E-14
  0.524999976      -7.21442762E-14
  0.526000023      -4.44551859E-14
  0.527000010      -1.46741800E-14
  0.527999997       1.64681857E-14
  0.528999984       4.81830186E-14
  0.529999971       7.96426117E-14
  0.531000018       1.10001553E-13
  0.532000005       1.38418831E-13
  0.532999992       1.64080446E-13
  0.533999979       1.86221874E-13
  0.535000026       2.04149848E-13
  0.536000013       2.17262880E-13
  0.537000000       2.25069841E-13
  0.537999988       2.27206193E-13
  0.538999975       2.23447305E-13
  0.540000021       2.13718501E-13
  0.541000009       1.98101342E-13
  0.541999996       1.76836058E-13
  0.542999983       1.50319874E-13
  0.544000030       1.19101154E-13
  0.545000017       8.38693400E-14
  0.546000004       4.54409900E-14
  0.546999991       4.74196742E-15
  0.547999978      -3.72137319E-14
  0.549000025      -7.93481220E-14
  0.550000012      -1.20545839E-13
  0.550999999      -1.59682529E-13
  0.551999986      -1.95654406E-13
  0.552999973      -2.27408234E-13
  0.554000020      -2.53970971E-13
  0.555000007      -2.74478167E-13
  0.555999994      -2.88200589E-13
  0.556999981      -2.94568189E-13
  0.558000028      -2.93190521E-13
  0.559000015      -2.83873240E-13
  0.560000002      -2.66629871E-13
  0.560999990      -2.41688695E-13
  0.561999977      -2.09493826E-13
  0.563000023      -1.70700829E-13
  0.564000010      -1.26166384E-13
  0.564999998      -7.69322418E-14
  0.565999985      -2.42035633E-14
  0.566999972       3.06779409E-14
  0.568000019       8.62655894E-14
  0.569000006       1.41043346E-13
  0.569999993       1.93464751E-13
  0.570999980       2.41994142E-13
  0.572000027       2.85149264E-13
  0.573000014       3.21544142E-13
  0.574000001       3.49930832E-13
  0.574999988       3.69239388E-13
  0.575999975       3.78614349E-13
  0.577000022       3.77446745E-13
  0.578000009       3.65400798E-13
  0.578999996       3.42433953E-13
  0.579999983       3.08809808E-13
  0.580999970       2.65102691E-13
  0.582000017       2.12194208E-13
  0.583000004       1.51260677E-13
  0.583999991       8.37519276E-14
  0.584999979       1.13614503E-14
  0.586000025      -6.40115402E-14
  0.587000012      -1.40307538E-13
  0.588000000      -2.15358601E-13
  0.588999987      -2.86945462E-13
  0.589999974      -3.52858720E-13
  0.591000021      -4.10962144E-13
  0.592000008      -4.59256710E-13
  0.592999995      -4.95943564E-13
  0.593999982      -5.19483816E-13
  0.595000029      -5.28653401E-13
  0.596000016      -5.22591627E-13
  0.597000003      -5.00840851E-13
  0.597999990      -4.63376624E-13
  0.598999977      -4.10626557E-13
  0.600000024      -3.43476875E-13
  0.601000011      -2.63266107E-13
  0.601999998      -1.71765434E-13
  0.602999985      -7.11456854E-14
  0.603999972       3.60686653E-14
  0.605000019       1.47057591E-13
  0.606000006       2.58774664E-13
  0.606999993       3.68025597E-13
  0.607999980       4.71554436E-13
  0.609000027       5.66134813E-13
  0.610000014       6.48664607E-13
  0.611000001       7.16260222E-13
  0.611999989       7.66348844E-13
  0.612999976       7.96755131E-13
  0.614000022       8.05779922E-13
  0.615000010       7.92268161E-13
  0.615999997       7.55663652E-13
  0.616999984       6.96048850E-13
  0.617999971       6.14167029E-13
  0.619000018       5.11426838E-13
  0.620000005       3.89887016E-13
  0.620999992       2.52222044E-13
  0.621999979       1.01668436E-13
  0.623000026      -5.80472085E-14
  0.624000013      -2.22797150E-13
  0.625000000      -3.88156304E-13
  0.625999987      -5.49518439E-13
  0.626999974      -7.02221701E-13
  0.628000021      -8.41680404E-13
  0.629000008      -9.63519087E-13
  0.629999995      -1.06370501E-12
  0.630999982      -1.13867542E-12
  0.632000029      -1.18545570E-12
  0.633000016      -1.20176373E-12
  0.634000003      -1.18609831E-12
  0.634999990      -1.13780751E-12
  0.635999978      -1.05713517E-12
  0.637000024      -9.45241606E-13
  0.638000011      -8.04200023E-13
  0.638999999      -6.36965632E-13
  0.639999986      -4.47318398E-13
  0.640999973      -2.39780092E-13
  0.642000020      -1.95078159E-14
  0.643000007       2.07834292E-13
  0.643999994       4.36221507E-13
  0.644999981       6.59429542E-13
  0.646000028       8.71205885E-13
  0.647000015       1.06544678E-12
  0.648000002       1.23637418E-12
  0.648999989       1.37870921E-12
  0.649999976       1.48783449E-12
  0.651000023       1.55994217E-12
  0.652000010       1.59216292E-12
  0.652999997       1.58267030E-12
  0.653999984       1.53075816E-12
  0.654999971       1.43688761E-12
  0.656000018       1.30270144E-12
  0.657000005       1.13100523E-12
  0.657999992       9.25714041E-13
  0.658999979       6.91766523E-13
  0.660000026       4.35007553E-13
  0.661000013       1.62041902E-13
  0.662000000      -1.19936531E-13
  0.662999988      -4.03336463E-13
  0.663999975      -6.80376274E-13
  0.665000021      -9.43300668E-13
  0.666000009      -1.18460114E-12
  0.666999996      -1.39723378E-12
  0.667999983      -1.57482805E-12
  0.669000030      -1.71188031E-12
  0.670000017      -1.80392626E-12
  0.671000004      -1.84768650E-12
  0.671999991      -1.84118172E-12
  0.672999978      -1.78381225E-12
  0.674000025      -1.67639925E-12
  0.675000012      -1.52118715E-12
  0.675999999      -1.32180399E-12
  0.676999986      -1.08318313E-12
  0.677999973      -8.11445095E-13
  0.679000020      -5.13744537E-13
  0.680000007      -1.98084469E-13
  0.680999994       1.26896364E-13
  0.681999981       4.52157653E-13
  0.683000028       7.68506894E-13
  0.684000015       1.06685721E-12
  0.685000002       1.33848629E-12
  0.685999990       1.57528840E-12
  0.686999977       1.77001404E-12
  0.688000023       1.91648758E-12
  0.689000010       2.00979879E-12
  0.689999998       2.04646174E-12
  0.690999985       2.02453440E-12
  0.691999972       1.94369889E-12
  0.693000019       1.80529441E-12
  0.694000006       1.61230643E-12
  0.694999993       1.36930831E-12
  0.695999980       1.08235762E-12
  0.697000027       7.58849689E-13
  0.698000014       4.07331449E-13
  0.699000001       3.72805797E-14
  0.699999988      -3.41144430E-13
  0.700999975      -7.17376787E-13
  0.702000022      -1.08072904E-12
  0.703000009      -1.42068822E-12
  0.703999996      -1.72721017E-12
  0.704999983      -1.99100502E-12
  0.705999970      -2.20380636E-12
  0.707000017      -2.35861482E-12
  0.708000004      -2.44991158E-12
  0.708999991      -2.47383385E-12
  0.709999979      -2.42830625E-12
  0.711000025      -2.31312777E-12
  0.712000012      -2.13000624E-12
  0.713000000      -1.88254208E-12
  0.713999987      -1.57616194E-12
  0.714999974      -1.21799988E-12
  0.716000021      -8.16731557E-13
  0.717000008      -3.82365038E-13
  0.717999995       7.40080808E-14
  0.718999982       5.40493811E-13
  0.720000029       1.00470240E-12
  0.721000016       1.45407232E-12
  0.722000003       1.87620405E-12
  0.722999990       2.25919392E-12
  0.723999977       2.59195920E-12
  0.725000024       2.86454692E-12
  0.726000011       3.06841661E-12
  0.726999998       3.19668944E-12
  0.727999985       3.24435877E-12
  0.728999972       3.20845282E-12
  0.730000019       3.08814693E-12
  0.731000006       2.88482129E-12
  0.731999993       2.60206201E-12
  0.732999980       2.24560431E-12
  0.734000027       1.82321888E-12
  0.735000014       1.34454383E-12
  0.736000001       8.20865565E-13
  0.736999989       2.64853135E-13
  0.737999976      -3.09746532E-13
  0.739000022      -8.88446434E-13
  0.740000010      -1.45638156E-12
  0.740999997      -1.99868572E-12
  0.741999984      -2.50087581E-12
  0.742999971      -2.94923005E-12
  0.744000018      -3.33115480E-12
  0.745000005      -3.63552743E-12
  0.745999992      -3.85300689E-12
  0.746999979      -3.97630323E-12
  0.748000026      -4.00040114E-12
  0.749000013      -3.92272716E-12
  0.750000000      -3.74325744E-12
  0.750999987      -3.46456371E-12
  0.751999974      -3.09179288E-12
  0.753000021      -2.63258079E-12
  0.754000008      -2.09690165E-12
  0.754999995      -1.49685592E-12
  0.755999982      -8.46399502E-13
  0.757000029      -1.61021953E-13
  0.758000016       5.42619552E-13
  0.759000003       1.24710257E-12
  0.759999990       1.93466835E-12
  0.760999978       2.58766533E-12
  0.762000024       3.18899963E-12
  0.763000011       3.72257737E-12
  0.763999999       4.17373081E-12
  0.764999986       4.52961540E-12
  0.765999973       4.77956693E-12
  0.767000020       4.91541053E-12
  0.768000007       4.93171172E-12
  0.768999994       4.82596211E-12
  0.769999981       4.59869469E-12
  0.771000028       4.25352418E-12
  0.772000015       3.79710976E-12
  0.773000002       3.23903881E-12
  0.773999989       2.59163567E-12
  0.774999976       1.86969776E-12
  0.776000023       1.09016225E-12
  0.777000010       2.71714427E-13
  0.777999997      -5.65656246E-13
  0.778999984      -1.40114071E-12
  0.779999971      -2.21362490E-12
  0.781000018      -2.98221994E-12
  0.782000005      -3.68679740E-12
  0.782999992      -4.30851405E-12
  0.783999979      -4.83031237E-12
  0.785000026      -5.23738561E-12
  0.786000013      -5.51759159E-12
  0.787000000      -5.66180783E-12
  0.787999988      -5.66421476E-12
  0.788999975      -5.52250129E-12
  0.790000021      -5.23797889E-12
  0.791000009      -4.81561405E-12
  0.791999996      -4.26395941E-12
  0.792999983      -3.59499713E-12
  0.794000030      -2.82389216E-12
  0.795000017      -1.96865744E-12
  0.796000004      -1.04974395E-12
  0.796999991      -8.95596260E-14
  0.797999978       8.88067506E-13
  0.799000025       1.85847193E-12
  0.800000012       2.79676260E-12
  0.800999999       3.67845077E-12
  0.801999986       4.48007603E-12
  0.802999973       5.17981534E-12
  0.804000020       5.75806069E-12
  0.805000007       6.19794450E-12
  0.805999994       6.48580408E-12
  0.806999981       6.61157110E-12
  0.808000028       6.56907168E-12
  0.809000015       6.35623108E-12
  0.810000002       5.97517608E-12
  0.810999990       5.43222889E-12
  0.811999977       4.73779392E-12
  0.813000023       3.90613540E-12
  0.814000010       2.95505309E-12
  0.814999998       1.90546363E-12
  0.815999985       7.80892928E-13
  0.816999972      -3.93104115E-13
  0.818000019      -1.58958513E-12
  0.819000006      -2.78090528E-12
  0.819999993      -3.93942951E-12
  0.820999980      -5.03825280E-12
  0.822000027      -6.05191331E-12
  0.823000014      -6.95707424E-12
  0.824000001      -7.73315786E-12
  0.824999988      -8.36291713E-12
  0.825999975      -8.83292918E-12
  0.827000022      -9.13398957E-12
  0.828000009      -9.26140588E-12
  0.828999996      -9.21517290E-12
  0.829999983      -9.00002989E-12
  0.830999970      -8.62539120E-12
  0.832000017      -8.10515370E-12
  0.833000004      -7.45738280E-12
  0.833999991      -6.70388658E-12
  0.834999979      -5.86968321E-12
  0.836000025      -4.98237562E-12
  0.837000012      -4.07145238E-12
  0.838000000      -3.16752527E-12
  0.838999987      -2.30152898E-12
  0.839999974      -1.50389803E-12
  0.841000021      -8.03747531E-13
  0.842000008      -2.28074504E-13
  0.842999995       1.98996147E-13
  0.843999982       4.56901498E-13
  0.845000029       5.29247056E-13
  0.846000016       4.04312949E-13
  0.847000003       7.54449942E-14
  0.847999990      -4.58681541E-13
  0.848999977      -1.19393427E-12
  0.850000024      -2.12073696E-12
  0.851000011      -3.22422688E-12
  0.851999998      -4.48455292E-12
  0.852999985      -5.87730862E-12
  0.853999972      -7.37409439E-12
  0.855000019      -8.94319081E-12
  0.856000006      -1.05503297E-11