   0.00000000       0.00000000    
   1.00000005E-03   0.00000000    
   2.00000009E-03   0.00000000    
   3.00000003E-03   0.00000000    
   4.00000019E-03   0.00000000    
   4.99999989E-03   0.00000000    
   6.00000005E-03   0.00000000    
   7.00000022E-03   0.00000000    
   8.00000038E-03   0.00000000    
   8.99999961E-03   0.00000000    
   9.99999978E-03   0.00000000    
   1.09999999E-02   0.00000000    
   1.20000001E-02   0.00000000    
   1.30000003E-02   0.00000000    
   1.40000004E-02   2.63675298E-38
   1.49999997E-02   1.64520735E-37
   1.60000008E-02   8.84617076E-37
   1.70000009E-02   3.71988502E-36
   1.79999992E-02   1.33059489E-35
   1.89999994E-02   3.95447607E-35
   1.99999996E-02   1.05258505E-34
   2.09999997E-02   2.58018714E-34
   2.19999999E-02   5.98402986E-34
   2.30000000E-02   1.32161565E-33
   2.40000002E-02   2.79706401E-33
   2.50000004E-02   5.69990268E-33
   2.60000005E-02   1.12020123E-32
   2.70000007E-02   2.12696549E-32
   2.80000009E-02   3.90902065E-32
   2.89999992E-02   6.96589430E-32
   2.99999993E-02   1.20549050E-31
   3.09999995E-02   2.02871141E-31
   3.20000015E-02   3.32395384E-31
   3.29999998E-02   5.30758551E-31
   3.40000018E-02   8.26608474E-31
   3.50000001E-02   1.25644707E-30
   3.59999985E-02   1.86482831E-30
   3.70000005E-02   2.70346153E-30
   3.79999988E-02   3.82867839E-30
   3.90000008E-02   5.29668840E-30
   3.99999991E-02   7.15608160E-30
   4.10000011E-02   9.43723879E-30
   4.19999994E-02   1.21386595E-29
   4.30000015E-02   1.52108472E-29
   4.39999998E-02   1.85392243E-29
   4.50000018E-02   2.19286850E-29
   4.60000001E-02   2.50937041E-29
   4.69999984E-02   2.76592610E-29
   4.80000004E-02   2.91790123E-29
   4.89999987E-02   2.91777062E-29
   5.00000007E-02   2.72244672E-29
   5.09999990E-02   2.30412105E-29
   5.20000011E-02   1.66460427E-29
   5.29999994E-02   8.52342490E-30
   5.40000014E-02  -1.98701427E-31
   5.49999997E-02  -7.60135133E-30
   5.60000017E-02  -1.09136311E-29
   5.70000000E-02  -6.62134414E-30
   5.79999983E-02   9.14367591E-30
   5.90000004E-02   3.97928965E-29
   5.99999987E-02   8.68844054E-29
   6.10000007E-02   1.47956161E-28
   6.19999990E-02   2.13404906E-28
   6.30000010E-02   2.62250992E-28
   6.40000030E-02   2.56684597E-28
   6.49999976E-02   1.35395571E-28
   6.59999996E-02  -1.94150759E-28
   6.70000017E-02  -8.64104870E-28
   6.80000037E-02  -2.05460672E-27
   6.89999983E-02  -4.00108864E-27
   7.00000003E-02  -6.99901046E-27
   7.10000023E-02  -1.14040714E-26
   7.19999969E-02  -1.76254191E-26
   7.29999989E-02  -2.61089355E-26
   7.40000010E-02  -3.73073399E-26
   7.50000030E-02  -5.16335932E-26
   7.59999976E-02  -6.93942388E-26
   7.69999996E-02  -9.06997695E-26
   7.80000016E-02  -1.15350200E-25
   7.90000036E-02  -1.42695459E-25
   7.99999982E-02  -1.71472698E-25
   8.10000002E-02  -1.99625763E-25
   8.20000023E-02  -2.24116098E-25
   8.29999968E-02  -2.40738950E-25
   8.39999989E-02  -2.43964553E-25
   8.50000009E-02  -2.26829385E-25
   8.60000029E-02  -1.80908880E-25
   8.69999975E-02  -9.64082751E-26
   8.79999995E-02   3.75871082E-26
   8.90000015E-02   2.32658969E-25
   9.00000036E-02   5.00357265E-25
   9.09999982E-02   8.51216514E-25
   9.20000002E-02   1.29345864E-24
   9.30000022E-02   1.83136603E-24
   9.39999968E-02   2.46333394E-24
   9.49999988E-02   3.17963798E-24
   9.60000008E-02   3.95998945E-24
   9.70000029E-02   4.77099486E-24
   9.79999974E-02   5.56368766E-24
   9.89999995E-02   6.27135151E-24
  0.100000001       6.80790748E-24
  0.101000004       7.06719580E-24
  0.101999998       6.92352135E-24
  0.103000000       6.23386129E-24
  0.104000002       4.84214775E-24
  0.104999997       2.58602055E-24
  0.105999999      -6.93610388E-25
  0.107000001      -5.13995852E-24
  0.108000003      -1.08646018E-23
  0.108999997      -1.79286706E-23
  0.109999999      -2.63213444E-23
  0.111000001      -3.59363029E-23
  0.112000003      -4.65471574E-23
  0.112999998      -5.77832472E-23
  0.114000000      -6.91076169E-23
  0.115000002      -7.97994084E-23
  0.115999997      -8.89432025E-23
  0.116999999      -9.54282576E-23
  0.118000001      -9.79606399E-23
  0.119000003      -9.50914518E-23
  0.119999997      -8.52640499E-23
  0.120999999      -6.68826757E-23
  0.122000001      -3.84045477E-23
  0.123000003       1.54394910E-24
  0.123999998       5.40275688E-23
  0.125000000       1.19641106E-22
  0.126000002       1.98331395E-22
  0.127000004       2.89208903E-22
  0.128000006       3.90358012E-22
  0.128999993       4.98657835E-22
  0.129999995       6.09627871E-22
  0.130999997       7.17314881E-22
  0.131999999       8.14239709E-22
  0.133000001       8.91423425E-22
  0.134000003       9.38513246E-22
  0.135000005       9.44026841E-22
  0.136000007       8.95732095E-22
  0.136999995       7.81175355E-22
  0.137999997       5.88364977E-22
  0.138999999       3.06609862E-22
  0.140000001      -7.24970619E-23
  0.141000003      -5.53970894E-22
  0.142000005      -1.13823718E-21
  0.143000007      -1.81989146E-21
  0.143999994      -2.58648028E-21
  0.144999996      -3.41737634E-21
  0.145999998      -4.28284192E-21
  0.147000000      -5.14337795E-21
  0.148000002      -5.94946788E-21
  0.149000004      -6.64183057E-21
  0.150000006      -7.15228744E-21
  0.150999993      -7.40535059E-21
  0.151999995      -7.32060416E-21
  0.152999997      -6.81595048E-21
  0.153999999      -5.81173544E-21
  0.155000001      -4.23572777E-21
  0.156000003      -2.02888603E-21
  0.157000005       8.48227775E-22
  0.158000007       4.40858994E-21
  0.158999994       8.63168462E-21
  0.159999996       1.34566437E-20
  0.160999998       1.87759772E-20
  0.162000000       2.44303561E-20
  0.163000003       3.02049686E-20
  0.164000005       3.58280067E-20
  0.165000007       4.09718261E-20
  0.165999994       4.52573164E-20
  0.166999996       4.82619562E-20
  0.167999998       4.95319305E-20
  0.169000000       4.85985703E-20
  0.170000002       4.49991649E-20
  0.171000004       3.83020102E-20
  0.172000006       2.81353207E-20
  0.172999993       1.42193107E-20
  0.173999995      -3.59955721E-21
  0.174999997      -2.53134150E-20
  0.175999999      -5.07185534E-20
  0.177000001      -7.93836187E-20
  0.178000003      -1.10622547E-19
  0.179000005      -1.43474632E-19
  0.180000007      -1.76694219E-19
  0.180999994      -2.08752288E-19
  0.181999996      -2.37852502E-19
  0.182999998      -2.61963706E-19
  0.184000000      -2.78870450E-19
  0.185000002      -2.86242697E-19
  0.186000004      -2.81725180E-19
  0.187000006      -2.63045684E-19
  0.187999994      -2.28140652E-19
  0.188999996      -1.75295585E-19
  0.189999998      -1.03295924E-19
  0.191000000      -1.15834593E-20
  0.192000002       9.95883581E-20
  0.193000004       2.29007899E-19
  0.194000006       3.74376258E-19
  0.194999993       5.32204852E-19
  0.195999995       6.97749749E-19
  0.196999997       8.64992434E-19
  0.197999999       1.02667652E-18
  0.199000001       1.17440911E-18
  0.200000003       1.29883352E-18
  0.201000005       1.38987798E-18
  0.202000007       1.43708301E-18
  0.202999994       1.43000585E-18
  0.203999996       1.35869720E-18
  0.204999998       1.21424086E-18
  0.206000000       9.89342651E-19
  0.207000002       6.78950209E-19
  0.208000004       2.80880318E-19
  0.209000006      -2.03572690E-19
  0.209999993      -7.69078619E-19
  0.210999995      -1.40579748E-18
  0.211999997      -2.09902540E-18
  0.213000000      -2.82899575E-18
  0.214000002      -3.57087253E-18
  0.215000004      -4.29496576E-18
  0.216000006      -4.96719807E-18
  0.216999993      -5.54984176E-18
  0.217999995      -6.00254034E-18
  0.218999997      -6.28361383E-18
  0.219999999      -6.35163661E-18
  0.221000001      -6.16726261E-18
  0.222000003      -5.69525846E-18
  0.223000005      -4.90668940E-18
  0.224000007      -3.78118196E-18
  0.224999994      -2.30918469E-18
  0.225999996      -4.94123680E-19
  0.226999998       1.64565660E-18
  0.228000000       4.07528189E-18
  0.229000002       6.74219035E-18
  0.230000004       9.57554121E-18
  0.231000006       1.24863104E-17
  0.231999993       1.53681654E-17
  0.232999995       1.80992065E-17
  0.233999997       2.05446253E-17
  0.234999999       2.25603073E-17
  0.236000001       2.39973715E-17
  0.237000003       2.47075855E-17
  0.238000005       2.45495576E-17
  0.238999993       2.33955744E-17
  0.239999995       2.11388735E-17
  0.240999997       1.77011142E-17
  0.241999999       1.30397720E-17
  0.243000001       7.15513132E-18
  0.244000003       9.65373542E-20
  0.245000005      -8.03247134E-18
  0.246000007      -1.70705098E-17
  0.246999994      -2.67965226E-17
  0.247999996      -3.69301336E-17
  0.248999998      -4.71344619E-17
  0.250000000      -5.70215963E-17
  0.250999987      -6.61608899E-17
  0.252000004      -7.40901572E-17
  0.252999991      -8.03296202E-17
  0.254000008      -8.43985151E-17
  0.254999995      -8.58339778E-17
  0.256000012      -8.42117575E-17
  0.256999999      -7.91681660E-17
  0.257999986      -7.04225773E-17
  0.259000003      -5.77996093E-17
  0.259999990      -4.12500479E-17
  0.261000007      -2.08695783E-17
  0.261999995       3.08579893E-18
  0.263000011       3.01886381E-17
  0.263999999       5.98342089E-17
  0.264999986       9.12408538E-17
  0.266000003       1.23457355E-16
  0.266999990       1.55377844E-16
  0.268000007       1.85764609E-16
  0.268999994       2.13278886E-16
  0.270000011       2.36519472E-16
  0.270999998       2.54068591E-16
  0.272000015       2.64544007E-16
  0.273000002       2.66656163E-16
  0.273999989       2.59268844E-16
  0.275000006       2.41461221E-16
  0.275999993       2.12589203E-16
  0.277000010       1.72343531E-16
  0.277999997       1.20801960E-16
  0.279000014       5.84729608E-17
  0.280000001      -1.36719092E-17
  0.280999988      -9.41794494E-17
  0.282000005      -1.81112373E-16
  0.282999992      -2.72064971E-16
  0.284000009      -3.64198386E-16
  0.284999996      -4.54296275E-16
  0.286000013      -5.38841227E-16
  0.287000000      -6.14111169E-16
  0.287999988      -6.76294346E-16
  0.289000005      -7.21620720E-16
  0.289999992      -7.46506706E-16
  0.291000009      -7.47708540E-16
  0.291999996      -7.22480617E-16
  0.293000013      -6.68732194E-16
  0.294000000      -5.85177000E-16
  0.294999987      -4.71469285E-16
  0.296000004      -3.28319341E-16
  0.296999991      -1.57582645E-16
  0.298000008       3.76842841E-17
  0.298999995       2.53206418E-16
  0.300000012       4.83515947E-16
  0.300999999       7.22024701E-16
  0.301999986       9.61146073E-16
  0.303000003       1.19246579E-15
  0.303999990       1.40696132E-15
  0.305000007       1.59526596E-15
  0.305999994       1.74797319E-15
  0.307000011       1.85597328E-15
  0.307999998       1.91081316E-15
  0.308999985       1.90506858E-15
  0.310000002       1.83271651E-15
  0.310999990       1.68949350E-15
  0.312000006       1.47322503E-15
  0.312999994       1.18411204E-15
  0.314000010       8.24959004E-16
  0.314999998       4.01329240E-16
  0.316000015      -7.83839790E-17
  0.317000002      -6.02982426E-16
  0.317999989      -1.15859221E-15
  0.319000006      -1.72890171E-15
  0.319999993      -2.29551074E-15
  0.321000010      -2.83838771E-15
  0.321999997      -3.33642890E-15
  0.323000014      -3.76810950E-15
  0.324000001      -4.11220901E-15
  0.324999988      -4.34859431E-15
  0.326000005      -4.45903512E-15
  0.326999992      -4.42802567E-15
  0.328000009      -4.24358467E-15
  0.328999996      -3.89800031E-15
  0.330000013      -3.38849008E-15
  0.331000000      -2.71774312E-15
  0.331999987      -1.89431528E-15
  0.333000004      -9.32849984E-16
  0.333999991       1.45899572E-16
  0.335000008       1.31526344E-15
  0.335999995       2.54307709E-15
  0.337000012       3.79233591E-15
  0.338000000       5.02207783E-15
  0.338999987       6.18848455E-15
  0.340000004       7.24617713E-15
  0.340999991       8.14968007E-15
  0.342000008       8.85501033E-15
  0.342999995       9.32134771E-15
  0.344000012       9.51273565E-15
  0.344999999       9.39974993E-15
  0.345999986       8.96107410E-15
  0.347000003       8.18491749E-15
  0.347999990       7.07021239E-15
  0.349000007       5.62753020E-15
  0.349999994       3.87965823E-15
  0.351000011       1.86179049E-15
  0.351999998      -3.78703137E-16
  0.352999985      -2.78296275E-15
  0.354000002      -5.28178025E-15
  0.354999989      -7.79720425E-15
  0.356000006      -1.02445772E-14
  0.356999993      -1.25349763E-14
  0.358000010      -1.45779944E-14
  0.358999997      -1.62847912E-14
  0.360000014      -1.75713258E-14
  0.361000001      -1.83616838E-14
  0.361999989      -1.85913551E-14
  0.363000005      -1.82103749E-14
  0.363999993      -1.71861867E-14
  0.365000010      -1.55061121E-14
  0.365999997      -1.31792990E-14
  0.367000014      -1.02380508E-14
  0.368000001      -6.73843805E-15
  0.368999988      -2.76010726E-15
  0.370000005       1.59475425E-15
  0.370999992       6.20332880E-15
  0.372000009       1.09249530E-14
  0.372999996       1.56047508E-14
  0.374000013       2.00780317E-14
  0.375000000       2.41753656E-14
  0.375999987       2.77282012E-14
  0.377000004       3.05748740E-14
  0.377999991       3.25668108E-14
  0.379000008       3.35747157E-14
  0.379999995       3.34945423E-14
  0.381000012       3.22529953E-14
  0.381999999       2.98123478E-14
  0.382999986       2.61743413E-14
  0.384000003       2.13829774E-14
  0.384999990       1.55260038E-14
  0.386000007       8.73495019E-15
  0.386999995       1.18361843E-15
  0.388000011      -6.91504400E-15
  0.388999999      -1.53136848E-14
  0.389999986      -2.37368583E-14
  0.391000003      -3.18887881E-14
  0.391999990      -3.94624146E-14
  0.393000007      -4.61494924E-14
  0.393999994      -5.16514626E-14
  0.395000011      -5.56907459E-14
  0.395999998      -5.80221160E-14
  0.397000015      -5.84437351E-14
  0.398000002      -5.68074301E-14
  0.398999989      -5.30278099E-14
  0.400000006      -4.70897769E-14
  0.400999993      -3.90540939E-14
  0.402000010      -2.90606603E-14
  0.402999997      -1.73291760E-14
  0.404000014      -4.15705305E-15
  0.405000001       1.00856094E-14
  0.405999988       2.49639956E-14
  0.407000005       3.99894012E-14
  0.407999992       5.46327476E-14
  0.409000009       6.83405020E-14
  0.409999996       8.05525893E-14
  0.411000013       9.07218501E-14
  0.412000000       9.83343859E-14
  0.412999988       1.02930197E-13
  0.414000005       1.04123395E-13
  0.414999992       1.01621233E-13
  0.416000009       9.52411571E-14
  0.416999996       8.49252512E-14
  0.418000013       7.07512594E-14
  0.419000000       5.29395999E-14
  0.419999987       3.18558893E-14
  0.421000004       8.00851695E-15
  0.421999991      -1.79589823E-14
  0.423000008      -4.52808296E-14
  0.423999995      -7.30871255E-14
  0.425000012      -1.00426903E-13
  0.425999999      -1.26295621E-13
  0.426999986      -1.49666520E-13
  0.428000003      -1.69524889E-13
  0.428999990      -1.84904419E-13
  0.430000007      -1.94924331E-13
  0.430999994      -1.98826199E-13
  0.432000011      -1.96009008E-13
  0.432999998      -1.86061277E-13
  0.433999985      -1.68788825E-13
  0.435000002      -1.44236917E-13
  0.435999990      -1.12705682E-13
  0.437000006      -7.47577998E-14
  0.437999994      -3.12176703E-14
  0.439000010       1.68384966E-14
  0.439999998       6.81018962E-14
  0.441000015       1.21059670E-13
  0.442000002       1.74032338E-13
  0.442999989       2.25219501E-13
  0.444000006       2.72752713E-13
  0.444999993       3.14754326E-13
  0.446000010       3.49400413E-13
  0.446999997       3.74986229E-13
  0.448000014       3.89991858E-13
  0.449000001       3.93145938E-13
  0.449999988       3.83485182E-13
  0.451000005       3.60407423E-13
  0.451999992       3.23715853E-13
  0.453000009       2.73652493E-13
  0.453999996       2.10919064E-13
  0.455000013       1.36683687E-13
  0.456000000       5.25724653E-14
  0.456999987      -3.93548041E-14
  0.458000004      -1.36645036E-13
  0.458999991      -2.36507862E-13
  0.460000008      -3.35886375E-13
  0.460999995      -4.31541033E-13
  0.462000012      -5.20144908E-13
  0.463000000      -5.98387442E-13
  0.463999987      -6.63084062E-13
  0.465000004      -7.11288179E-13
  0.465999991      -7.40401826E-13
  0.467000008      -7.48281428E-13
  0.467999995      -7.33334725E-13
  0.469000012      -6.94605181E-13
  0.469999999      -6.31840283E-13
  0.470999986      -5.45540555E-13
  0.472000003      -4.36986629E-13
  0.472999990      -3.08242256E-13
  0.474000007      -1.62131783E-13
  0.474999994      -2.19156561E-15
  0.476000011       1.67404691E-13
  0.476999998       3.41945412E-13
  0.477999985       5.16303471E-13
  0.479000002       6.85078621E-13
  0.479999989       8.42756203E-13
  0.481000006       9.83877801E-13
  0.481999993       1.10321908E-12
  0.483000010       1.19596867E-12
  0.483999997       1.25790264E-12
  0.485000014       1.28554882E-12
  0.486000001       1.27633451E-12
  0.486999989       1.22871190E-12
  0.488000005       1.14225686E-12
  0.488999993       1.01773538E-12
  0.490000010       8.57134459E-13
  0.490999997       6.63655166E-13
  0.492000014       4.41665693E-13
  0.493000001       1.96614507E-13
  0.493999988      -6.50954442E-14
  0.495000005      -3.36268990E-13
  0.495999992      -6.09113725E-13
  0.497000009      -8.75462680E-13
  0.497999996      -1.12701862E-12
  0.499000013      -1.35561256E-12
  0.500000000      -1.55346883E-12
  0.500999987      -1.71346769E-12
  0.501999974      -1.82939753E-12
  0.503000021      -1.89618698E-12
  0.504000008      -1.91010901E-12
  0.504999995      -1.86894814E-12
  0.505999982      -1.77212552E-12
  0.507000029      -1.62077513E-12
  0.508000016      -1.41776597E-12
  0.509000003      -1.16766850E-12
  0.509999990      -8.76664247E-13
  0.510999978      -5.52399489E-13
  0.512000024      -2.03785475E-13
  0.513000011       1.59249363E-13
  0.513999999       5.26048823E-13
  0.514999986       8.85551832E-13
  0.515999973       1.22663891E-12
  0.517000020       1.53849123E-12
  0.518000007       1.81095080E-12
  0.518999994       2.03486923E-12
  0.519999981       2.20243355E-12
  0.521000028       2.30745609E-12
  0.522000015       2.34561849E-12
  0.523000002       2.31466018E-12
  0.523999989       2.21450202E-12
  0.524999976       2.04730005E-12
  0.526000023       1.81742490E-12
  0.527000010       1.53136531E-12
  0.527999997       1.19755735E-12
  0.528999984       8.26142540E-13
  0.529999971       4.28661013E-13
  0.531000018       1.76895851E-14
  0.532000005      -3.93564792E-13
  0.532999992      -7.91703834E-13
  0.533999979      -1.16359342E-12
  0.535000026      -1.49682090E-12
  0.536000013      -1.78013810E-12
  0.537000000      -2.00387385E-12
  0.537999988      -2.16030037E-12
  0.538999975      -2.24394006E-12
  0.540000021      -2.25179922E-12
  0.541000009      -2.18351899E-12
  0.541999996      -2.04143581E-12
  0.542999983      -1.83054657E-12
  0.544000030      -1.55837756E-12
  0.545000017      -1.23475937E-12
  0.546000004      -8.71512172E-13
  0.546999991      -4.82052657E-13
  0.547999978      -8.09328190E-14
  0.549000025       3.16673662E-13
  0.550000012       6.95520030E-13
  0.550999999       1.04085122E-12
  0.551999986       1.33896453E-12
  0.552999973       1.57774477E-12
  0.554000020       1.74715472E-12
  0.555000007       1.83966102E-12
  0.555999994       1.85057763E-12
  0.556999981       1.77831198E-12
  0.558000028       1.62450240E-12
  0.559000015       1.39403853E-12
  0.560000002       1.09495952E-12
  0.560999990       7.38232500E-13
  0.561999977       3.37414043E-13
  0.563000023      -9.17962538E-14
  0.564000010      -5.32094768E-13
  0.564999998      -9.65189517E-13
  0.565999985      -1.37247201E-12
  0.566999972      -1.73572138E-12
  0.568000019      -2.03781480E-12
  0.569000006      -2.26341992E-12
  0.569999993      -2.39964147E-12
  0.570999980      -2.43659693E-12
  0.572000027      -2.36789711E-12
  0.573000014      -2.19101191E-12
  0.574000001      -1.90750367E-12
  0.574999988      -1.52311443E-12
  0.575999975      -1.04770131E-12
  0.577000022      -4.95015541E-13
  0.578000009       1.17669736E-13
  0.578999996       7.70074325E-13
  0.579999983       1.43955464E-12
  0.580999970       2.10185558E-12
  0.582000017       2.73194661E-12
  0.583000004       3.30491190E-12
  0.583999991       3.79686733E-12
  0.584999979       4.18586823E-12
  0.586000025       4.45277365E-12
  0.587000012       4.58203744E-12
  0.588000000       4.56239430E-12
  0.588999987       4.38741014E-12
  0.589999974       4.05587369E-12
  0.591000021       3.57201465E-12
  0.592000008       2.94552967E-12
  0.592999995       2.19141307E-12
  0.593999982       1.32959420E-12
  0.595000029       3.84387346E-13
  0.596000016      -6.16230482E-13
  0.597000003      -1.64149120E-12
  0.597999990      -2.65882824E-12
  0.598999977      -3.63495865E-12
  0.600000024      -4.53701790E-12
  0.601000011      -5.33370700E-12
  0.601999998      -5.99640953E-12
  0.602999985      -6.50023915E-12
  0.603999972      -6.82497895E-12
  0.605000019      -6.95587468E-12
  0.606000006      -6.88425098E-12
  0.606999993      -6.60792471E-12
  0.607999980      -6.13139791E-12
  0.609000027      -5.46581747E-12
  0.610000014      -4.62870020E-12
  0.611000001      -3.64342757E-12
  0.611999989      -2.53852690E-12
  0.612999976      -1.34676038E-12
  0.614000022      -1.04052346E-13
  0.615000010       1.15170850E-12
  0.615999997       2.38195141E-12
  0.616999984       3.54874203E-12
  0.617999971       4.61608919E-12
  0.619000018       5.55119752E-12
  0.620000005       6.32561104E-12
  0.620999992       6.91620893E-12
  0.621999979       7.30601950E-12
  0.623000026       7.48480878E-12
  0.624000013       7.44942996E-12
  0.625000000       7.20391672E-12
  0.625999987       6.75931143E-12
  0.626999974       6.13323541E-12
  0.628000021       5.34921630E-12
  0.629000008       4.43579331E-12
  0.629999995       3.42543615E-12
  0.630999982       2.35331698E-12
  0.632000029       1.25598241E-12
  0.633000016       1.69974657E-13
  0.634000003      -8.69543532E-13
  0.634999990      -1.83010334E-12
  0.635999978      -2.68313973E-12
  0.637000024      -3.40503884E-12
  0.638000011      -3.97798417E-12
  0.638999999      -4.39057081E-12
  0.639999986      -4.63815141E-12
  0.640999973      -4.72290740E-12
  0.642000020      -4.65363945E-12
  0.643000007      -4.44527661E-12
  0.643999994      -4.11813032E-12
  0.644999981      -3.69691907E-12
  0.646000028      -3.20959817E-12
  0.647000015      -2.68605060E-12
  0.648000002      -2.15668412E-12
  0.648999989      -1.65099770E-12
  0.649999976      -1.19618063E-12
  0.651000023      -8.15799359E-13
  0.652000010      -5.28629495E-13
  0.652999997      -3.47692686E-13
  0.653999984      -2.79545023E-13
  0.654999971      -3.23845117E-13
  0.656000018      -4.73230179E-13
  0.657000005      -7.13519467E-13
  0.657999992      -1.02423994E-12
  0.658999979      -1.37945840E-12
  0.660000026      -1.74889638E-12
  0.661000013      -2.09929188E-12
  0.662000000      -2.39594629E-12
  0.662999988      -2.60440302E-12
  0.663999975      -2.69219391E-12
  0.665000021      -2.63056851E-12
  0.666000009      -2.39614188E-12
  0.666999996      -1.97238298E-12
  0.667999983      -1.35087178E-12
  0.669000030      -5.32266776E-13
  0.670000017       4.73073241E-13
  0.671000004       1.64485558E-12
  0.671999991       2.95303105E-12
  0.672999978       4.35839862E-12
  0.674000025       5.81362736E-12
  0.675000012       7.26467584E-12
  0.675999999       8.65256998E-12
  0.676999986       9.91548163E-12
  0.677999973       1.09910423E-11
  0.679000020       1.18188090E-11
  0.680000007       1.23427917E-11
  0.680999994       1.25139525E-11
  0.681999981       1.22925689E-11
  0.683000028       1.16503673E-11
  0.684000015       1.05723399E-11
  0.685000002       9.05815527E-12
  0.685999990       7.12309899E-12
  0.686999977       4.79847759E-12
  0.688000023       2.13145192E-12
  0.689000010      -8.15710346E-13
  0.689999998      -3.96696998E-12
  0.690999985      -7.23441142E-12
  0.691999972      -1.05206564E-11
  0.693000019      -1.37217199E-11
  0.694000006      -1.67302370E-11
  0.694999993      -1.94389470E-11
  0.695999980      -2.17443303E-11
  0.697000027      -2.35502711E-11
  0.698000014      -2.47716240E-11
  0.699000001      -2.53375532E-11
  0.699999988      -2.51945149E-11
  0.700999975      -2.43087824E-11
  0.702000022      -2.26683984E-11
  0.703000009      -2.02844738E-11
  0.703999996      -1.71917758E-11
  0.704999983      -1.34485600E-11
  0.705999970      -9.13560547E-12
  0.707000017      -4.35450807E-12
  0.708000004       7.74766102E-13
  0.708999991       6.11699927E-12
  0.709999979       1.15254221E-11
  0.711000025       1.68458893E-11
  0.712000012       2.19214109E-11
  0.713000000       2.65969000E-11
  0.713999987       3.07239754E-11
  0.714999974       3.41656807E-11
  0.716000021       3.68009616E-11
  0.717000008       3.85287496E-11
  0.717999995       3.92715131E-11
  0.718999982       3.89781575E-11
  0.720000029       3.76261799E-11
  0.721000016       3.52229738E-11
  0.722000003       3.18062521E-11
  0.722999990       2.74435613E-11
  0.723999977       2.22308665E-11
  0.725000024       1.62902712E-11
  0.726000011       9.76690950E-12
  0.726999998       2.82511037E-12
  0.727999985      -4.35606369E-12
  0.728999972      -1.15877724E-11
  0.730000019      -1.86766939E-11
  0.731000006      -2.54304997E-11
  0.731999993      -3.16633594E-11
  0.732999980      -3.72013045E-11
  0.734000027      -4.18872645E-11
  0.735000014      -4.55856602E-11
  0.736000001      -4.81864028E-11
  0.736999989      -4.96081579E-11
  0.737999976      -4.98008024E-11
  0.739000022      -4.87469891E-11
  0.740000010      -4.64627815E-11
  0.740999997      -4.29973383E-11
  0.741999984      -3.84316398E-11
  0.742999971      -3.28763336E-11
  0.744000018      -2.64687335E-11
  0.745000005      -1.93690827E-11
  0.745999992      -1.17561707E-11
  0.746999979      -3.82246231E-12
  0.748000026       4.23115015E-12
  0.749000013       1.22007873E-11
  0.750000000       1.98850918E-11
  0.750999987       2.70906231E-11
  0.751999974       3.36369994E-11
  0.753000021       3.93616598E-11
  0.754000008       4.41240690E-11
  0.754999995       4.78093155E-11
  0.755999982       5.03309755E-11
  0.757000029       5.16331734E-11
  0.758000016       5.16918036E-11
  0.759000003       5.05148770E-11
  0.759999990       4.81420112E-11
  0.760999978       4.46430774E-11
  0.762000024       4.01160528E-11
  0.763000011       3.46841618E-11
  0.763999999       2.84923699E-11
  0.764999986       2.17033440E-11
  0.765999973       1.44930101E-11
  0.767000020       7.04580925E-12
  0.768000007      -4.50219723E-13
  0.768999994      -7.80837547E-12
  0.769999981      -1.48481331E-11
  0.771000028      -2.13997656E-11
  0.772000015      -2.73086172E-11
  0.773000002      -3.24389231E-11
  0.773999989      -3.66770989E-11
  0.774999976      -3.99343926E-11
  0.776000023      -4.21488643E-11
  0.777000010      -4.32866312E-11
  0.777999997      -4.33423540E-11
  0.778999984      -4.23389726E-11
  0.779999971      -4.03266934E-11
  0.781000018      -3.73812717E-11
  0.782000005      -3.36016215E-11
  0.782999992      -2.91068281E-11
  0.783999979      -2.40326665E-11
  0.785000026      -1.85276829E-11
  0.786000013      -1.27489668E-11
  0.787000000      -6.85773487E-12
  0.787999988      -1.01482473E-12
  0.788999975       4.62376665E-12
  0.790000021       9.91117431E-12
  0.791000009       1.47136678E-11
  0.791999996       1.89142764E-11
  0.792999983       2.24159163E-11
  0.794000030       2.51439113E-11
  0.795000017       2.70478622E-11
  0.796000004       2.81028152E-11
  0.796999991       2.83096498E-11
  0.797999978       2.76947111E-11
  0.799000025       2.63086618E-11
  0.800000012       2.42245980E-11
  0.800999999       2.15354887E-11
  0.801999986       1.83509839E-11
  0.802999973       1.47936993E-11
  0.804000020       1.09951059E-11
  0.805000007       7.09111329E-12
  0.805999994       3.21751566E-12
  0.806999981      -4.94567928E-13
  0.808000028      -3.92310056E-12
  0.809000015      -6.95923874E-12
  0.810000002      -9.51101177E-12
  0.810999990      -1.15064069E-11
  0.811999977      -1.28957834E-11
  0.813000023      -1.36535063E-11
  0.814000010      -1.37787143E-11
  0.814999998      -1.32951844E-11
  0.815999985      -1.22502971E-11
  0.816999972      -1.07131092E-11
  0.818000019      -8.77158242E-12
  0.819000006      -6.52907112E-12
  0.819999993      -4.10016378E-12
  0.820999980      -1.60604201E-12
  0.822000027       8.30504502E-13
  0.823000014       3.09020604E-12
  0.824000001       5.06237890E-12
  0.824999988       6.64973718E-12
  0.825999975       7.77276334E-12
  0.827000022       8.37344083E-12
  0.828000009       8.41817501E-12
  0.828999996       7.89976071E-12
  0.829999983       6.83830857E-12
  0.830999970       5.28102692E-12
  0.832000017       3.30079844E-12
  0.833000004       9.93655570E-13
  0.833999991      -1.52482801E-12
  0.834999979      -4.12418233E-12
  0.836000025      -6.66447973E-12
  0.837000012      -9.00239692E-12
  0.838000000      -1.09977244E-11
  0.838999987      -1.25199911E-11
  0.839999974      -1.34549871E-11
  0.841000021      -1.37108771E-11
  0.842000008      -1.32236548E-11
  0.842999995      -1.19616400E-11
  0.843999982      -9.92880431E-12
  0.845000029      -7.16674029E-12
  0.846000016      -3.75503014E-12
  0.847000003       1.89898227E-13
  0.847999990       4.51763627E-12
  0.848999977       9.04833240E-12
  0.850000024       1.35786903E-11
  0.851000011       1.78893532E-11
  0.851999998       2.17534480E-11
  0.852999985       2.49459429E-11
  0.853999972       2.72535067E-11
  0.855000019       2.84845151E-11
  0.856000006       2.84787766E-11