   0.00000000       0.00000000    
   1.00000005E-03   0.00000000    
   2.00000009E-03   0.00000000    
   3.00000003E-03   0.00000000    
   4.00000019E-03  -1.03550564E-17
   4.99999989E-03  -9.09927526E-17
   6.00000005E-03  -4.41786842E-16
   7.00000022E-03  -1.56419616E-15
   8.00000038E-03  -4.50531573E-15
   8.99999961E-03  -1.11799057E-14
   9.99999978E-03  -2.47449325E-14
   1.09999999E-02  -4.99768819E-14
   1.20000001E-02  -9.35775573E-14
   1.30000003E-02  -1.64312845E-13
   1.40000004E-02  -2.72874957E-13
   1.49999997E-02  -4.31355364E-13
   1.60000008E-02  -6.52227458E-13
   1.70000009E-02  -9.46762850E-13
   1.79999992E-02  -1.32285339E-12
   1.89999994E-02  -1.78226683E-12
   1.99999996E-02  -2.31744073E-12
   2.09999997E-02  -2.90800327E-12
   2.19999999E-02  -3.51729475E-12
   2.30000000E-02  -4.08923720E-12
   2.40000002E-02  -4.54598728E-12
   2.50000004E-02  -4.78683412E-12
   2.60000005E-02  -4.68880577E-12
   2.70000007E-02  -4.10950701E-12
   2.80000009E-02  -2.89247359E-12
   2.89999992E-02  -8.75405163E-13
   2.99999993E-02   2.09862596E-12
   3.09999995E-02   6.16715663E-12
   3.20000015E-02   1.14317340E-11
   3.29999998E-02   1.79395821E-11
   3.40000018E-02   2.56639640E-11
   3.50000001E-02   3.44851474E-11
   3.59999985E-02   4.41724886E-11
   3.70000005E-02   5.43699911E-11
   3.79999988E-02   6.45866624E-11
   3.90000008E-02   7.41934569E-11
   3.99999991E-02   8.24285015E-11
   4.10000011E-02   8.84118612E-11
   4.19999994E-02   9.11712511E-11
   4.30000015E-02   8.96788338E-11
   4.39999998E-02   8.28996524E-11
   4.50000018E-02   6.98503477E-11
   4.60000001E-02   4.96672529E-11
   4.69999984E-02   2.16814223E-11
   4.80000004E-02  -1.45028009E-11
   4.89999987E-02  -5.89287646E-11
   5.00000007E-02  -1.11213719E-10
   5.09999990E-02  -1.70483502E-10
   5.20000011E-02  -2.35323427E-10
   5.29999994E-02  -3.03746889E-10
   5.40000014E-02  -3.73191422E-10
   5.49999997E-02  -4.40542602E-10
   5.60000017E-02  -5.02190955E-10
   5.70000000E-02  -5.54124246E-10
   5.79999983E-02  -5.92056404E-10
   5.90000004E-02  -6.11589668E-10
   5.99999987E-02  -6.08410655E-10
   6.10000007E-02  -5.78510795E-10
   6.19999990E-02  -5.18428578E-10
   6.30000010E-02  -4.25501967E-10
   6.40000030E-02  -2.98119029E-10
   6.49999976E-02  -1.35957121E-10
   6.59999996E-02   5.98045502E-11
   6.70000017E-02   2.86312835E-10
   6.80000037E-02   5.38921630E-10
   6.89999983E-02   8.11140433E-10
   7.00000003E-02   1.09465814E-09
   7.10000023E-02   1.37945999E-09
   7.19999969E-02   1.65402991E-09
   7.29999989E-02   1.90565186E-09
   7.40000010E-02   2.12080398E-09
   7.50000030E-02   2.28563857E-09
   7.59999976E-02   2.38653786E-09
   7.69999996E-02   2.41072762E-09
   7.80000016E-02   2.34693176E-09
   7.90000036E-02   2.18603713E-09
   7.99999982E-02   1.92174565E-09
   8.10000002E-02   1.55118463E-09
   8.20000023E-02   1.07543141E-09
   8.29999968E-02   4.99940978E-10
   8.39999989E-02  -1.65175276E-10
   8.50000009E-02  -9.05031772E-10
   8.60000029E-02  -1.70004122E-09
   8.69999975E-02  -2.52619370E-09
   8.79999995E-02  -3.35555206E-09
   8.90000015E-02  -4.15696055E-09
   9.00000036E-02  -4.89696417E-09
   9.09999982E-02  -5.54092283E-09
   9.20000002E-02  -6.05427486E-09
   9.30000022E-02  -6.40394449E-09
   9.39999968E-02  -6.55980559E-09
   9.49999988E-02  -6.49618670E-09
   9.60000008E-02  -6.19333518E-09
   9.70000029E-02  -5.63877789E-09
   9.79999974E-02  -4.82852380E-09
   9.89999995E-02  -3.76802012E-09
  0.100000001      -2.47284104E-09
  0.101000004      -9.69011538E-10
  0.101999998       7.07049308E-10
  0.103000000       2.50900167E-09
  0.104000002       4.38150183E-09
  0.104999997       6.26156371E-09
  0.105999999       8.08031331E-09
  0.107000001       9.76517978E-09
  0.108000003       1.12423422E-08
  0.108999997       1.24395267E-08
  0.109999999       1.32888678E-08
  0.111000001       1.37299381E-08
  0.112000003       1.37126621E-08
  0.112999998       1.32000837E-08
  0.114000000       1.21708670E-08
  0.115000002       1.06213403E-08
  0.115999997       8.56707949E-09
  0.116999999       6.04381611E-09
  0.118000001       3.10768034E-09
  0.119000003      -1.65352440E-10
  0.119999997      -3.68080033E-09
  0.120999999      -7.32782013E-09
  0.122000001      -1.09821405E-08
  0.123000003      -1.45097303E-08
  0.123999998      -1.77710895E-08
  0.125000000      -2.06260893E-08
  0.126000002      -2.29391173E-08
  0.127000004      -2.45845140E-08
  0.128000006      -2.54519357E-08
  0.128999993      -2.54515733E-08
  0.129999995      -2.45189415E-08
  0.130999997      -2.26190426E-08
  0.131999999      -1.97497716E-08
  0.133000001      -1.59442664E-08
  0.134000003      -1.12721503E-08
  0.135000005      -5.83953108E-09
  0.136000007       2.12410742E-10
  0.136999995       6.71012446E-09
  0.137999997       1.34518254E-08
  0.138999999       2.02128678E-08
  0.140000001       2.67523568E-08
  0.141000003       3.28206760E-08
  0.142000005       3.81679151E-08
  0.143000007       4.25527489E-08
  0.143999994       4.57516052E-08
  0.144999996       4.75676956E-08
  0.145999998       4.78397411E-08
  0.147000000       4.64498910E-08
  0.148000002       4.33305622E-08
  0.149000004       3.84699668E-08
  0.150000006       3.19159561E-08
  0.150999993       2.37780178E-08
  0.151999995       1.42272123E-08
  0.152999997       3.49397089E-09
  0.153999999      -8.13627121E-09
  0.155000001      -2.03296455E-08
  0.156000003      -3.27123892E-08
  0.157000005      -4.48812969E-08
  0.158000007      -5.64156757E-08
  0.158999994      -6.68905926E-08
  0.159999996      -7.58909806E-08
  0.160999998      -8.30260660E-08
  0.162000000      -8.79438744E-08
  0.163000003      -9.03450328E-08
  0.164000005      -8.99956518E-08
  0.165000007      -8.67385168E-08
  0.165999994      -8.05023959E-08
  0.166999996      -7.13089250E-08
  0.167999998      -5.92767329E-08
  0.169000000      -4.46226451E-08
  0.170000002      -2.76595227E-08
  0.171000004      -8.79103368E-09
  0.172000006       1.14968461E-08
  0.172999993       3.26474421E-08
  0.173999995       5.40477849E-08
  0.174999997       7.50455129E-08
  0.175999999       9.49678807E-08
  0.177000001       1.13142043E-07
  0.178000003       1.28916653E-07
  0.179000005       1.41683174E-07
  0.180000007       1.50897250E-07
  0.180999994       1.56098636E-07
  0.181999996       1.56929403E-07
  0.182999998       1.53149813E-07
  0.184000000       1.44650642E-07
  0.185000002       1.31462670E-07
  0.186000004       1.13761381E-07
  0.187000006       9.18678253E-08
  0.187999994       6.62447874E-08
  0.188999996       3.74883733E-08
  0.189999998       6.31520836E-09
  0.191000000      -2.64547424E-08
  0.192000002      -5.99190173E-08
  0.193000004      -9.31171300E-08
  0.194000006      -1.25057255E-07
  0.194999993      -1.54745692E-07
  0.195999995      -1.81216478E-07
  0.196999997      -2.03562152E-07
  0.197999999      -2.20963159E-07
  0.199000001      -2.32716189E-07
  0.200000003      -2.38259474E-07
  0.201000005      -2.37195124E-07
  0.202000007      -2.29306934E-07
  0.202999994      -2.14573518E-07
  0.203999996      -1.93175808E-07
  0.204999998      -1.65498832E-07
  0.206000000      -1.32127255E-07
  0.207000002      -9.38348066E-08
  0.208000004      -5.15676035E-08
  0.209000006      -6.42166453E-09
  0.209999993       4.03848155E-08
  0.210999995       8.75437109E-08
  0.211999997       1.33693291E-07
  0.213000000       1.77456911E-07
  0.214000002       2.17483887E-07
  0.215000004       2.52490423E-07
  0.216000006       2.81300544E-07
  0.216999993       3.02883905E-07
  0.217999995       3.16392033E-07
  0.218999997       3.21188907E-07
  0.219999999       3.16876424E-07
  0.221000001       3.03313982E-07
  0.222000003       2.80630417E-07
  0.223000005       2.49228236E-07
  0.224000007       2.09779884E-07
  0.224999994       1.63215688E-07
  0.225999996       1.10703503E-07
  0.226999998       5.36208447E-08
  0.228000000      -6.48049481E-09
  0.229000002      -6.79157850E-08
  0.230000004      -1.28914436E-07
  0.231000006      -1.87670310E-07
  0.231999993      -2.42395572E-07
  0.232999995      -2.91374533E-07
  0.233999997      -3.33017397E-07
  0.234999999      -3.65911717E-07
  0.236000001      -3.88869466E-07
  0.237000003      -4.00969157E-07
  0.238000005      -4.01590370E-07
  0.238999993      -3.90440476E-07
  0.239999995      -3.67571602E-07
  0.240999997      -3.33388272E-07
  0.241999999      -2.88643150E-07
  0.243000001      -2.34423098E-07
  0.244000003      -1.72124459E-07
  0.245000005      -1.03417442E-07
  0.246000007      -3.02019778E-08
  0.246999994       4.54447964E-08
  0.247999996       1.21328142E-07
  0.248999998       1.95199959E-07
  0.250000000       2.64826213E-07
  0.250999987       3.28055705E-07
  0.252000004       3.82887265E-07
  0.252999991       4.27534530E-07
  0.254000008       4.60484529E-07
  0.254999995       4.80549716E-07
  0.256000012       4.86909983E-07
  0.256999999       4.79145115E-07
  0.257999986       4.57254458E-07
  0.259000003       4.21664112E-07
  0.259999990       3.73220757E-07
  0.261000007       3.13172308E-07
  0.261999995       2.43135588E-07
  0.263000011       1.65051546E-07
  0.263999999       8.11298975E-08
  0.264999986      -6.21567997E-09
  0.266000003      -9.44397485E-08
  0.266999990      -1.80942294E-07
  0.268000007      -2.63149019E-07
  0.268999994      -3.38591263E-07
  0.270000011      -4.04983751E-07
  0.270999998      -4.60297457E-07
  0.272000015      -5.02824435E-07
  0.273000002      -5.31233525E-07
  0.273999989      -5.44614238E-07
  0.275000006      -5.42507792E-07
  0.275999993      -5.24922370E-07
  0.277000010      -4.92336142E-07
  0.277999997      -4.45682190E-07
  0.279000014      -3.86321091E-07
  0.280000001      -3.15998477E-07
  0.280999988      -2.36789845E-07
  0.282000005      -1.51035408E-07
  0.282999992      -6.12660997E-08
  0.284000009       2.98767837E-08
  0.284999996       1.19724874E-07
  0.286000013       2.05666893E-07
  0.287000000       2.85230470E-07
  0.287999988       3.56158694E-07
  0.289000005       4.16479111E-07
  0.289999992       4.64562902E-07
  0.291000009       4.99171961E-07
  0.291999996       5.19492460E-07
  0.293000013       5.25153837E-07
  0.294000000       5.16233399E-07
  0.294999987       4.93244613E-07
  0.296000004       4.57112662E-07
  0.296999991       4.09134856E-07
  0.298000008       3.50931003E-07
  0.298999995       2.84382878E-07
  0.300000012       2.11566672E-07
  0.300999999       1.34680690E-07
  0.301999986       5.59705100E-08
  0.303000003      -2.23444161E-08
  0.303999990      -9.81418253E-08
  0.305000007      -1.69460975E-07
  0.305999994      -2.34559309E-07
  0.307000011      -2.91958855E-07
  0.307999998      -3.40481648E-07
  0.308999985      -3.79271938E-07
  0.310000002      -4.07805913E-07
  0.310999990      -4.25889567E-07
  0.312000006      -4.33642327E-07
  0.312999994      -4.31471477E-07
  0.314000010      -4.20036343E-07
  0.314999998      -4.00204840E-07
  0.316000015      -3.73005093E-07
  0.317000002      -3.39573205E-07
  0.317999989      -3.01101522E-07
  0.319000006      -2.58787793E-07
  0.319999993      -2.13788937E-07
  0.321000010      -1.67181355E-07
  0.321999997      -1.19927506E-07
  0.323000014      -7.28537159E-08
  0.324000001      -2.66358775E-08
  0.324999988       1.82037656E-08
  0.326000005       6.12900735E-08
  0.326999992       1.02379573E-07
  0.328000009       1.41337480E-07
  0.328999996       1.78107740E-07
  0.330000013       2.12679794E-07
  0.331000000       2.45052547E-07
  0.331999987       2.75199028E-07
  0.333000004       3.03034625E-07
  0.333999991       3.28387756E-07
  0.335000008       3.50981168E-07
  0.335999995       3.70418604E-07
  0.337000012       3.86182933E-07
  0.338000000       3.97645067E-07
  0.338999987       4.04082726E-07
  0.340000004       4.04710221E-07
  0.340999991       3.98717674E-07
  0.342000008       3.85317094E-07
  0.342999995       3.63796346E-07
  0.344000012       3.33573240E-07
  0.344999999       2.94252629E-07
  0.345999986       2.45679445E-07
  0.347000003       1.87987553E-07
  0.347999990       1.21637228E-07
  0.349000007       4.74445869E-08
  0.349999994      -3.34050050E-08
  0.351000011      -1.19358660E-07
  0.351999998      -2.08513484E-07
  0.352999985      -2.98653049E-07
  0.354000002      -3.87299139E-07
  0.354999989      -4.71780680E-07
  0.356000006      -5.49316610E-07
  0.356999993      -6.17110572E-07
  0.358000010      -6.72451961E-07
  0.358999997      -7.12824715E-07
  0.360000014      -7.36013874E-07
  0.361000001      -7.40208691E-07
  0.361999989      -7.24097674E-07
  0.363000005      -6.86949988E-07
  0.363999993      -6.28679402E-07
  0.365000010      -5.49888625E-07
  0.365999997      -4.51889065E-07
  0.367000014      -3.36695905E-07
  0.368000001      -2.06995637E-07
  0.368999988      -6.60874022E-08
  0.370000005       8.22008417E-08
  0.370999992       2.33621250E-07
  0.372000009       3.83633903E-07
  0.372999996       5.27551492E-07
  0.374000013       6.60695775E-07
  0.375000000       7.78560263E-07
  0.375999987       8.76971512E-07
  0.377000004       9.52246182E-07
  0.377999991       1.00133502E-06
  0.379000008       1.02194713E-06
  0.379999995       1.01265505E-06
  0.381000012       9.72967541E-07
  0.381999999       9.03372495E-07
  0.382999986       8.05347099E-07
  0.384000003       6.81330505E-07
  0.384999990       5.34663798E-07
  0.386000007       3.69493563E-07
  0.386999995       1.90647583E-07
  0.388000011       3.48132323E-09
  0.388999999      -1.86296731E-07
  0.389999986      -3.72813645E-07
  0.391000003      -5.50232016E-07
  0.391999990      -7.12949202E-07
  0.393000007      -8.55792223E-07
  0.393999994      -9.74198997E-07
  0.395000011      -1.06437915E-06
  0.395999998      -1.12344958E-06
  0.397000015      -1.14953696E-06
  0.398000002      -1.14184616E-06
  0.398999989      -1.10068936E-06
  0.400000006      -1.02747617E-06
  0.400999993      -9.24663482E-07
  0.402000010      -7.95667574E-07
  0.402999997      -6.44743295E-07
  0.404000014      -4.76830621E-07
  0.405000001      -2.97379387E-07
  0.405999988      -1.12154972E-07
  0.407000005       7.29655554E-08
  0.407999992       2.52199726E-07
  0.409000009       4.20060559E-07
  0.409999996       5.71544433E-07
  0.411000013       7.02298621E-07
  0.412000000       8.08762422E-07
  0.412999988       8.88276361E-07
  0.414000005       9.39156337E-07
  0.414999992       9.60730290E-07
  0.416000009       9.53334165E-07
  0.416999996       9.18272178E-07
  0.418000013       8.57739849E-07
  0.419000000       7.74713783E-07
  0.419999987       6.72817180E-07
  0.421000004       5.56161069E-07
  0.421999991       4.29173355E-07
  0.423000008       2.96418762E-07
  0.423999995       1.62421003E-07
  0.425000012       3.14918474E-08
  0.425999999      -9.24242940E-08
  0.426999986      -2.05886408E-07
  0.428000003      -3.06063583E-07
  0.428999990      -3.90815643E-07
  0.430000007      -4.58737446E-07
  0.430999994      -5.09171173E-07
  0.432000011      -5.42185091E-07
  0.432999998      -5.58520298E-07
  0.433999985      -5.59509658E-07
  0.435000002      -5.46973524E-07
  0.435999990      -5.23097128E-07
  0.437000006      -4.90295804E-07
  0.437999994      -4.51077113E-07
  0.439000010      -4.07903627E-07
  0.439999998      -3.63064117E-07
  0.441000015      -3.18562030E-07
  0.442000002      -2.76022263E-07
  0.442999989      -2.36623393E-07
  0.444000006      -2.01058427E-07
  0.444999993      -1.69524512E-07
  0.446000010      -1.41743001E-07
  0.446999997      -1.17007033E-07
  0.448000014      -9.42560661E-08
  0.449000001      -7.21705931E-08
  0.449999988      -4.92846937E-08
  0.451000005      -2.41077522E-08
  0.451999992       4.75079354E-09
  0.453000009       3.84576282E-08
  0.453999996       7.78458613E-08
  0.455000013       1.23318088E-07
  0.456000000       1.74774684E-07
  0.456999987       2.31569246E-07
  0.458000004       2.92492814E-07
  0.458999991       3.55792082E-07
  0.460000008       4.19218964E-07
  0.460999995       4.80114579E-07
  0.462000012       5.35517302E-07
  0.463000000       5.82298355E-07
  0.463999987       6.17313788E-07
  0.465000004       6.37567894E-07
  0.465999991       6.40379426E-07
  0.467000008       6.23544224E-07
  0.467999995       5.85483008E-07
  0.469000012       5.25370979E-07
  0.469999999       4.43235308E-07
  0.470999986       3.40022865E-07
  0.472000003       2.17624248E-07
  0.472999990       7.88599763E-08
  0.474000007      -7.25796880E-08
  0.474999994      -2.32234626E-07
  0.476000011      -3.95017679E-07
  0.476999998      -5.55390272E-07
  0.477999985      -7.07567210E-07
  0.479000002      -8.45742022E-07
  0.479999989      -9.64325977E-07
  0.481000006      -1.05818401E-06
  0.481999993      -1.12286796E-06
  0.483000010      -1.15482521E-06
  0.483999997      -1.15158093E-06
  0.485000014      -1.11188285E-06
  0.486000001      -1.03579873E-06
  0.486999989      -9.24765459E-07
  0.488000005      -7.81579104E-07
  0.488999993      -6.10333359E-07
  0.490000010      -4.16299912E-07
  0.490999997      -2.05759335E-07
  0.492000014       1.42195802E-08
  0.493000001       2.36029905E-07
  0.493999988       4.51816021E-07
  0.495000005       6.53771792E-07
  0.495999992       8.34446496E-07
  0.497000009       9.87049589E-07
  0.497999996       1.10572557E-06
  0.499000013       1.18580454E-06
  0.500000000       1.22400866E-06
  0.500999987       1.21860137E-06
  0.501999974       1.16948581E-06
  0.503000021       1.07822814E-06
  0.504000008       9.48023455E-07
  0.504999995       7.83589826E-07
  0.505999982       5.90998468E-07
  0.507000029       3.77450505E-07
  0.508000016       1.51000521E-07
  0.509000003      -7.97543720E-08
  0.509999990      -3.06016460E-07
  0.510999978      -5.19134971E-07
  0.512000024      -7.10956783E-07
  0.513000011      -8.74158104E-07
  0.513999999      -1.00254533E-06
  0.514999986      -1.09131361E-06
  0.515999973      -1.13724820E-06
  0.517000020      -1.13886392E-06
  0.518000007      -1.09647419E-06
  0.518999994      -1.01218552E-06
  0.519999981      -8.89816590E-07
  0.521000028      -7.34747573E-07
  0.522000015      -5.53702421E-07
  0.523000002      -3.54474679E-07
  0.523999989      -1.45604446E-07
  0.524999976       6.39739497E-08
  0.526000023       2.65306966E-07
  0.527000010       4.49796630E-07
  0.527999997       6.09562164E-07
  0.528999984       7.37778691E-07
  0.529999971       8.28961731E-07
  0.531000018       8.79213701E-07
  0.532000005       8.86383305E-07
  0.532999992       8.50172057E-07
  0.533999979       7.72148496E-07
  0.535000026       6.55685653E-07
  0.536000013       5.05829178E-07
  0.537000000       3.29086618E-07
  0.537999988       1.33151133E-07
  0.538999975      -7.34246868E-08
  0.540000021      -2.81582373E-07
  0.541000009      -4.82154917E-07
  0.541999996      -6.66256540E-07
  0.542999983      -8.25662710E-07
  0.544000030      -9.53172673E-07
  0.545000017      -1.04292008E-06
  0.546000004      -1.09063421E-06
  0.546999991      -1.09383370E-06
  0.547999978      -1.05194010E-06
  0.549000025      -9.66317316E-07
  0.550000012      -8.40223947E-07
  0.550999999      -6.78680465E-07
  0.551999986      -4.88272917E-07
  0.552999973      -2.76870622E-07
  0.554000020      -5.33079110E-08
  0.555000007       1.72994973E-07
  0.555999994       3.92425790E-07
  0.556999981       5.95588290E-07
  0.558000028       7.73707256E-07
  0.559000015       9.18995511E-07
  0.560000002       1.02500064E-06
  0.560999990       1.08687163E-06
  0.561999977       1.10158169E-06
  0.563000023       1.06805658E-06
  0.564000010       9.87233079E-07
  0.564999998       8.62023853E-07
  0.565999985       6.97198175E-07
  0.566999972       4.99196403E-07
  0.568000019       2.75853580E-07
  0.569000006       3.60799817E-08
  0.569999993      -2.10512795E-07
  0.570999980      -4.54009665E-07
  0.572000027      -6.84607357E-07
  0.573000014      -8.93020911E-07
  0.574000001      -1.07087692E-06
  0.574999988      -1.21105040E-06
  0.575999975      -1.30796548E-06
  0.577000022      -1.35782147E-06
  0.578000009      -1.35874120E-06
  0.578999996      -1.31084812E-06
  0.579999983      -1.21624555E-06
  0.580999970      -1.07891969E-06
  0.582000017      -9.04569333E-07
  0.583000004      -7.00344572E-07
  0.583999991      -4.74554440E-07
  0.584999979      -2.36303293E-07
  0.586000025       4.89482410E-09
  0.587000012       2.39513810E-07
  0.588000000       4.58405168E-07
  0.588999987       6.53180166E-07
  0.589999974       8.16544684E-07
  0.591000021       9.42586325E-07
  0.592000008       1.02700778E-06
  0.592999995       1.06726509E-06
  0.593999982       1.06265895E-06
  0.595000029       1.01431090E-06
  0.596000016       9.25103166E-07
  0.597000003       7.99497968E-07
  0.597999990       6.43326700E-07
  0.598999977       4.63500243E-07
  0.600000024       2.67700642E-07
  0.601000011       6.40164544E-08
  0.601999998      -1.39409281E-07
  0.602999985      -3.34734807E-07
  0.603999972      -5.14750127E-07
  0.605000019      -6.73180864E-07
  0.606000006      -8.04924241E-07
  0.606999993      -9.06247749E-07
  0.607999980      -9.74905447E-07
  0.609000027      -1.01018634E-06
  0.610000014      -1.01288492E-06
  0.611000001      -9.85217639E-07
  0.611999989      -9.30640908E-07
  0.612999976      -8.53660254E-07
  0.614000022      -7.59555064E-07
  0.615000010      -6.54078008E-07
  0.615999997      -5.43169222E-07
  0.616999984      -4.32627047E-07
  0.617999971      -3.27822221E-07
  0.619000018      -2.33427343E-07
  0.620000005      -1.53192289E-07
  0.620999992      -8.97756820E-08
  0.621999979      -4.46348629E-08
  0.623000026      -1.79827158E-08
  0.624000013      -8.80478535E-09
  0.625000000      -1.49586921E-08
  0.625999987      -3.33329098E-08
  0.626999974      -6.00427725E-08
  0.628000021      -9.06775384E-08
  0.629000008      -1.20593072E-07
  0.629999995      -1.45192772E-07
  0.630999982      -1.60239253E-07
  0.632000029      -1.62115043E-07
  0.633000016      -1.48078612E-07
  0.634000003      -1.16460356E-07
  0.634999990      -6.68216771E-08
  0.635999978      -1.46484370E-11
  0.637000024       8.17880874E-08
  0.638000011       1.75156345E-07
  0.638999999       2.75542675E-07
  0.639999986       3.77502460E-07
  0.640999973       4.74898258E-07
  0.642000020       5.61262027E-07
  0.643000007       6.30087413E-07
  0.643999994       6.75217677E-07
  0.644999981       6.91160835E-07
  0.646000028       6.73445641E-07
  0.647000015       6.18896991E-07
  0.648000002       5.25898031E-07
  0.648999989       3.94553609E-07
  0.649999976       2.26784579E-07
  0.651000023       2.63643560E-08
  0.652000010      -2.01183113E-07
  0.652999997      -4.48716804E-07
  0.653999984      -7.07731772E-07
  0.654999971      -9.68695645E-07
  0.656000018      -1.22137749E-06
  0.657000005      -1.45534034E-06
  0.657999992      -1.66033340E-06
  0.658999979      -1.82680685E-06
  0.660000026      -1.94630934E-06
  0.661000013      -2.01192961E-06
  0.662000000      -2.01867419E-06
  0.662999988      -1.96371593E-06
  0.663999975      -1.84663634E-06
  0.665000021      -1.66949883E-06
  0.666000009      -1.43687805E-06
  0.666999996      -1.15571015E-06
  0.667999983      -8.35116225E-07
  0.669000030      -4.86073816E-07
  0.670000017      -1.20996589E-07
  0.671000004       2.46727154E-07
  0.671999991       6.03258115E-07
  0.672999978       9.34876596E-07
  0.674000025       1.22856511E-06
  0.675000012       1.47252251E-06
  0.675999999       1.65670201E-06
  0.676999986       1.77327036E-06
  0.677999973       1.81694065E-06
  0.679000020       1.78524101E-06
  0.680000007       1.67866369E-06
  0.680999994       1.50069593E-06
  0.681999981       1.25770612E-06
  0.683000028       9.58686883E-07
  0.684000015       6.14985140E-07
  0.685000002       2.39778132E-07
  0.685999990      -1.52405860E-07
  0.686999977      -5.46306751E-07
  0.688000023      -9.26526980E-07
  0.689000010      -1.27823330E-06
  0.689999998      -1.58771581E-06
  0.690999985      -1.84300802E-06
  0.691999972      -2.03439527E-06
  0.693000019      -2.15480873E-06
  0.694000006      -2.20017864E-06
  0.694999993      -2.16956369E-06
  0.695999980      -2.06522600E-06
  0.697000027      -1.89255707E-06
  0.698000014      -1.65980998E-06
  0.699000001      -1.37777909E-06
  0.699999988      -1.05934453E-06
  0.700999975      -7.18869956E-07
  0.702000022      -3.71610753E-07
  0.703000009      -3.30546897E-08
  0.703999996       2.81767569E-07
  0.704999983       5.58960551E-07
  0.705999970       7.86354917E-07
  0.707000017       9.54063239E-07
  0.708000004       1.05490903E-06
  0.708999991       1.08479321E-06
  0.709999979       1.04280900E-06
  0.711000025       9.31366628E-07
  0.712000012       7.56065617E-07
  0.713000000       5.25406051E-07
  0.713999987       2.50502154E-07
  0.714999974      -5.54921868E-08
  0.716000021      -3.77917587E-07
  0.717000008      -7.01306476E-07
  0.717999995      -1.01005492E-06
  0.718999982      -1.28915042E-06
  0.720000029      -1.52486643E-06
  0.721000016      -1.70536543E-06
  0.722000003      -1.82133988E-06
  0.722999990      -1.86634884E-06
  0.723999977      -1.83722466E-06
  0.725000024      -1.73422734E-06
  0.726000011      -1.56106034E-06
  0.726999998      -1.32473224E-06
  0.727999985      -1.03530317E-06
  0.728999972      -7.05439447E-07
  0.730000019      -3.49904298E-07
  0.731000006       1.51398432E-08
  0.731999993       3.72797075E-07
  0.732999980       7.06217008E-07
  0.734000027       9.99336748E-07
  0.735000014       1.23765915E-06
  0.736000001       1.40885390E-06
  0.736999989       1.50338985E-06
  0.737999976       1.51500274E-06
  0.739000022       1.44096236E-06
  0.740000010       1.28239685E-06
  0.740999997       1.04408946E-06
  0.741999984       7.34458240E-07
  0.742999971       3.65202339E-07
  0.744000018      -4.91687508E-08
  0.745000005      -4.91950800E-07
  0.745999992      -9.44906276E-07
  0.746999979      -1.38909763E-06
  0.748000026      -1.80566326E-06
  0.749000013      -2.17662023E-06
  0.750000000      -2.48565971E-06
  0.750999987      -2.71896442E-06
  0.751999974      -2.86571708E-06
  0.753000021      -2.91859328E-06
  0.754000008      -2.87425155E-06
  0.754999995      -2.73333239E-06
  0.755999982      -2.50060702E-06
  0.757000029      -2.18471723E-06
  0.758000016      -1.79789538E-06
  0.759000003      -1.35546566E-06
  0.759999990      -8.75133196E-07
  0.760999978      -3.76397281E-07
  0.762000024       1.20465629E-07
  0.763000011       5.95052768E-07
  0.763999999       1.02792580E-06
  0.764999986       1.40120665E-06
  0.765999973       1.69950670E-06
  0.767000020       1.91059212E-06
  0.768000007       2.02578235E-06
  0.768999994       2.04042931E-06
  0.769999981       1.95411758E-06
  0.771000028       1.77060508E-06
  0.772000015       1.49774257E-06
  0.773000002       1.14716761E-06
  0.773999989       7.33612922E-07
  0.774999976       2.74521483E-07
  0.776000023      -2.10895706E-07
  0.777000010      -7.02403895E-07
  0.777999997      -1.17958086E-06
  0.778999984      -1.62285153E-06
  0.779999971      -2.01419925E-06
  0.781000018      -2.33788001E-06
  0.782000005      -2.58126533E-06
  0.782999992      -2.73530009E-06
  0.783999979      -2.79473670E-06
  0.785000026      -2.75856883E-06
  0.786000013      -2.62993399E-06
  0.787000000      -2.41589373E-06
  0.787999988      -2.12720738E-06
  0.788999975      -1.77770005E-06
  0.790000021      -1.38378130E-06
  0.791000009      -9.63542220E-07
  0.791999996      -5.36056632E-07
  0.792999983      -1.20394148E-07
  0.794000030       2.65074220E-07
  0.795000017       6.03595311E-07
  0.796000004       8.80864491E-07
  0.796999991       1.08543668E-06
  0.797999978       1.20934919E-06
  0.799000025       1.24855319E-06
  0.800000012       1.20289451E-06
  0.800999999       1.07611334E-06
  0.801999986       8.75773821E-07
  0.802999973       6.12709357E-07
  0.804000020       3.00673435E-07
  0.805000007      -4.44390622E-08
  0.805999994      -4.05387510E-07
  0.806999981      -7.64208608E-07
  0.808000028      -1.10329609E-06
  0.809000015      -1.40605005E-06
  0.810000002      -1.65776100E-06
  0.810999990      -1.84632734E-06
  0.811999977      -1.96273595E-06
  0.813000023      -2.00148997E-06
  0.814000010      -1.96097812E-06
  0.814999998      -1.84343128E-06
  0.815999985      -1.65488279E-06
  0.816999972      -1.40494376E-06
  0.818000019      -1.10619919E-06
  0.819000006      -7.73707825E-07
  0.819999993      -4.24253898E-07
  0.820999980      -7.56624985E-08
  0.822000027       2.54230486E-07
  0.823000014       5.48338278E-07
  0.824000001       7.91146874E-07
  0.824999988       9.69526582E-07
  0.825999975       1.07328356E-06
  0.827000022       1.09577422E-06
  0.828000009       1.03425236E-06
  0.828999996       8.90017191E-07
  0.829999983       6.68359405E-07
  0.830999970       3.78457827E-07
  0.832000017       3.28898437E-08
  0.833000004      -3.52820308E-07
  0.833999991      -7.61017986E-07
  0.834999979      -1.17254297E-06
  0.836000025      -1.56775320E-06
  0.837000012      -1.92744301E-06
  0.838000000      -2.23367033E-06
  0.838999987      -2.47064622E-06
  0.839999974      -2.62536651E-06
  0.841000021      -2.68857025E-06
  0.842000008      -2.65492895E-06
  0.842999995      -2.52347581E-06
  0.843999982      -2.29762350E-06
  0.845000029      -1.98528051E-06
  0.846000016      -1.59822741E-06
  0.847000003      -1.15206410E-06
  0.847999990      -6.65110974E-07
  0.848999977      -1.57835160E-07
  0.850000024       3.47977362E-07
  0.851000011       8.30278907E-07
  0.851999998       1.26777343E-06
  0.852999985       1.64081098E-06
  0.853999972       1.93245160E-06
  0.855000019       2.12891018E-06
  0.856000006       2.22064386E-06