   0.00000000       0.00000000    
   1.00000005E-03   0.00000000    
   2.00000009E-03   4.42122797E-11
   3.00000003E-03   2.16504939E-10
   4.00000019E-03   6.30653252E-10
   4.99999989E-03   1.41615142E-09
   6.00000005E-03   2.70070832E-09
   7.00000022E-03   4.59086769E-09
   8.00000038E-03   7.15237425E-09
   8.99999961E-03   1.03920392E-08
   9.99999978E-03   1.42428007E-08
   1.09999999E-02   1.85535551E-08
   1.20000001E-02   2.30850521E-08
   1.30000003E-02   2.75128027E-08
   1.40000004E-02   3.14375015E-08
   1.49999997E-02   3.44029658E-08
   1.60000008E-02   3.59210333E-08
   1.70000009E-02   3.55023211E-08
   1.79999992E-02   3.26915561E-08
   1.89999994E-02   2.71049814E-08
   1.99999996E-02   1.84682474E-08
   2.09999997E-02   6.65175959E-09
   2.19999999E-02  -8.29869595E-09
   2.30000000E-02  -2.61387143E-08
   2.40000002E-02  -4.64114116E-08
   2.50000004E-02  -6.84446846E-08
   2.60000005E-02  -9.13612368E-08
   2.70000007E-02  -1.14101184E-07
   2.80000009E-02  -1.35458350E-07
   2.89999992E-02  -1.54127903E-07
   2.99999993E-02  -1.68765283E-07
   3.09999995E-02  -1.78052957E-07
   3.20000015E-02  -1.80772460E-07
   3.29999998E-02  -1.75878640E-07
   3.40000018E-02  -1.62571666E-07
   3.50000001E-02  -1.40363383E-07
   3.59999985E-02  -1.09133865E-07
   3.70000005E-02  -6.91743907E-08
   3.79999988E-02  -2.12140261E-08
   3.90000008E-02   3.35736949E-08
   3.99999991E-02   9.35845819E-08
   4.10000011E-02   1.56819809E-07
   4.19999994E-02   2.20943846E-07
   4.30000015E-02   2.83362198E-07
   4.39999998E-02   3.41318156E-07
   4.50000018E-02   3.92003670E-07
   4.60000001E-02   4.32680366E-07
   4.69999984E-02   4.60806746E-07
   4.80000004E-02   4.74164352E-07
   4.89999987E-02   4.70977739E-07
   5.00000007E-02   4.50023549E-07
   5.09999990E-02   4.10720844E-07
   5.20000011E-02   3.53198146E-07
   5.29999994E-02   2.78335222E-07
   5.40000014E-02   1.87772613E-07
   5.49999997E-02   8.38893470E-08
   5.60000017E-02  -3.02513250E-08
   5.70000000E-02  -1.50990914E-07
   5.79999983E-02  -2.74192246E-07
   5.90000004E-02  -3.95383978E-07
   5.99999987E-02  -5.09924689E-07
   6.10000007E-02  -6.13184113E-07
   6.19999990E-02  -7.00728890E-07
   6.30000010E-02  -7.68512905E-07
   6.40000030E-02  -8.13054385E-07
   6.49999976E-02  -8.31601767E-07
   6.59999996E-02  -8.22271886E-07
   6.70000017E-02  -7.84162580E-07
   6.80000037E-02  -7.17424427E-07
   6.89999983E-02  -6.23295421E-07
   7.00000003E-02  -5.04091986E-07
   7.10000023E-02  -3.63154840E-07
   7.19999969E-02  -2.04753761E-07
   7.29999989E-02  -3.39513235E-08
   7.40000010E-02   1.43569252E-07
   7.50000030E-02   3.21704789E-07
   7.59999976E-02   4.94156211E-07
   7.69999996E-02   6.54662927E-07
   7.80000016E-02   7.97243842E-07
   7.90000036E-02   9.16430793E-07
   7.99999982E-02   1.00748639E-06
   8.10000002E-02   1.06659741E-06
   8.20000023E-02   1.09103496E-06
   8.29999968E-02   1.07927463E-06
   8.39999989E-02   1.03107106E-06
   8.50000009E-02   9.47484750E-07
   8.60000029E-02   8.30856948E-07
   8.69999975E-02   6.84734971E-07
   8.79999995E-02   5.13751786E-07
   8.90000015E-02   3.23462189E-07
   9.00000036E-02   1.20142388E-07
   9.09999982E-02  -8.94370871E-08
   9.20000002E-02  -2.98257845E-07
   9.30000022E-02  -4.99309749E-07
   9.39999968E-02  -6.85843929E-07
   9.49999988E-02  -8.51616392E-07
   9.60000008E-02  -9.91108550E-07
   9.70000029E-02  -1.09971859E-06
   9.79999974E-02  -1.17391551E-06
   9.89999995E-02  -1.21135122E-06
  0.100000001      -1.21092478E-06
  0.101000004      -1.17279762E-06
  0.101999998      -1.09836412E-06
  0.103000000      -9.90171657E-07
  0.104000002      -8.51806249E-07
  0.104999997      -6.87734655E-07
  0.105999999      -5.03126785E-07
  0.107000001      -3.03654161E-07
  0.108000003      -9.52802779E-08
  0.108999997       1.15950684E-07
  0.109999999       3.24116115E-07
  0.111000001       5.23602125E-07
  0.112000003       7.09265123E-07
  0.112999998       8.76566787E-07
  0.114000000       1.02167269E-06
  0.115000002       1.14151715E-06
  0.115999997       1.23383188E-06
  0.116999999       1.29713953E-06
  0.118000001       1.33071774E-06
  0.119000003       1.33453443E-06
  0.119999997       1.30916510E-06
  0.120999999       1.25569693E-06
  0.122000001       1.17562399E-06
  0.123000003       1.07075039E-06
  0.123999998       9.43093198E-07
  0.125000000       7.94808045E-07
  0.126000002       6.28129214E-07
  0.127000004       4.45334734E-07
  0.128000006       2.48733897E-07
  0.128999993       4.06818366E-08
  0.129999995      -1.76388014E-07
  0.130999997      -3.99911073E-07
  0.131999999      -6.27127179E-07
  0.133000001      -8.55012217E-07
  0.134000003      -1.08021197E-06
  0.135000005      -1.29898717E-06
  0.136000007      -1.50717722E-06
  0.136999995      -1.70019416E-06
  0.137999997      -1.87304647E-06
  0.138999999      -2.02040428E-06
  0.140000001      -2.13670501E-06
  0.141000003      -2.21630216E-06
  0.142000005      -2.25365579E-06
  0.143000007      -2.24355358E-06
  0.143999994      -2.18136643E-06
  0.144999996      -2.06331947E-06
  0.145999998      -1.88676916E-06
  0.147000000      -1.65047425E-06
  0.148000002      -1.35484572E-06
  0.149000004      -1.00215959E-06
  0.150000006      -5.96717825E-07
  0.150999993      -1.44944337E-07
  0.151999995       3.44595264E-07
  0.152999997       8.61258911E-07
  0.153999999       1.39249050E-06
  0.155000001       1.92406856E-06
  0.156000003       2.44045327E-06
  0.157000005       2.92521759E-06
  0.158000007       3.36155313E-06
  0.158999994       3.73283683E-06
  0.159999996       4.02323985E-06
  0.160999998       4.21835921E-06
  0.162000000       4.30583896E-06
  0.163000003       4.27596660E-06
  0.164000005       4.12221470E-06
  0.165000007       3.84169698E-06
  0.165999994       3.43551915E-06
  0.166999996       2.90900607E-06
  0.167999998       2.27178498E-06
  0.169000000       1.53771009E-06
  0.170000002       7.24628649E-07
  0.171000004      -1.46016504E-07
  0.172000006      -1.04973844E-06
  0.172999993      -1.95970551E-06
  0.173999995      -2.84755674E-06
  0.174999997      -3.68432188E-06
  0.175999999      -4.44140642E-06
  0.177000001      -5.09161009E-06
  0.178000003      -5.61013758E-06
  0.179000005      -5.97557892E-06
  0.180000007      -6.17079240E-06
  0.180999994      -6.18367721E-06
  0.181999996      -6.00779276E-06
  0.182999998      -5.64279480E-06
  0.184000000      -5.09466554E-06
  0.185000002      -4.37572226E-06
  0.186000004      -3.50439223E-06
  0.187000006      -2.50476705E-06
  0.187999994      -1.40592908E-06
  0.188999996      -2.41077203E-07
  0.189999998       9.53517599E-07
  0.191000000       2.13970566E-06
  0.192000002       3.27874614E-06
  0.193000004       4.33264768E-06
  0.194000006       5.26552412E-06
  0.194999993       6.04489742E-06
  0.195999995       6.64290656E-06
  0.196999997       7.03737760E-06
  0.197999999       7.21271181E-06
  0.199000001       7.16053682E-06
  0.200000003       6.88012960E-06
  0.201000005       6.37855146E-06
  0.202000007       5.67049710E-06
  0.202999994       4.77788308E-06
  0.203999996       3.72915360E-06
  0.204999998       2.55833766E-06
  0.206000000       1.30389651E-06
  0.207000002       7.39318873E-09
  0.208000004      -1.28796330E-06
  0.209000006      -2.53884923E-06
  0.209999993      -3.70337352E-06
  0.210999995      -4.74258104E-06
  0.211999997      -5.62186324E-06
  0.213000000      -6.31220973E-06
  0.214000002      -6.79125696E-06
  0.215000004      -7.04410786E-06
  0.216000006      -7.06385936E-06
  0.216999993      -6.85184068E-06
  0.217999995      -6.41755150E-06
  0.218999997      -5.77828814E-06
  0.219999999      -4.95847598E-06
  0.221000001      -3.98874454E-06
  0.222000003      -2.90476009E-06
  0.223000005      -1.74588752E-06
  0.224000007      -5.53700431E-07
  0.224999994       6.29572298E-07
  0.225999996       1.76262154E-06
  0.226999998       2.80658787E-06
  0.228000000       3.72648287E-06
  0.229000002       4.49245999E-06
  0.230000004       5.08086487E-06
  0.231000006       5.47504851E-06
  0.231999993       5.66588915E-06
  0.232999995       5.65203072E-06
  0.233999997       5.43979831E-06
  0.234999999       5.04283571E-06
  0.236000001       4.48143464E-06
  0.237000003       3.78163395E-06
  0.238000005       2.97408701E-06
  0.238999993       2.09277346E-06
  0.239999995       1.17358843E-06
  0.240999997       2.52881364E-07
  0.241999999      -6.33997445E-07
  0.243000001      -1.45409490E-06
  0.244000003      -2.17811953E-06
  0.245000005      -2.78154880E-06
  0.246000007      -3.24550501E-06
  0.246999994      -3.55739780E-06
  0.247999996      -3.71127931E-06
  0.248999998      -3.70792691E-06
  0.250000000      -3.55463681E-06
  0.250999987      -3.26474424E-06
  0.252000004      -2.85690589E-06
  0.252999991      -2.35415382E-06
  0.254000008      -1.78279845E-06
  0.254999995      -1.17119430E-06
  0.256000012      -5.48451112E-07
  0.256999999       5.68656269E-08
  0.257999986       6.17986359E-07
  0.259000003       1.11108886E-06
  0.259999990       1.51629069E-06
  0.261000007       1.81845394E-06
  0.261999995       2.00776026E-06
  0.263000011       2.08003303E-06
  0.263999999       2.03680520E-06
  0.264999986       1.88511626E-06
  0.266000003       1.63706238E-06
  0.266999990       1.30912758E-06
  0.268000007       9.21313472E-07
  0.268999994       4.96110431E-07
  0.270000011       5.73759280E-08
  0.270999998      -3.70831316E-07
  0.272000015      -7.65443815E-07
  0.273000002      -1.10548513E-06
  0.273999989      -1.37308848E-06
  0.275000006      -1.55433952E-06
  0.275999993      -1.63993514E-06
  0.277000010      -1.62562253E-06
  0.277999997      -1.51238260E-06
  0.279000014      -1.30636374E-06
  0.280000001      -1.01857347E-06
  0.280999988      -6.64329889E-07
  0.282000005      -2.62503590E-07
  0.282999992       1.65408153E-07
  0.284000009       5.96345046E-07
  0.284999996       1.00681564E-06
  0.286000013       1.37407210E-06
  0.287000000       1.67724147E-06
  0.287999988       1.89838420E-06
  0.289000005       2.02341516E-06
  0.289999992       2.04284765E-06
  0.291000009       1.95233429E-06
  0.291999996       1.75294997E-06
  0.293000013       1.45122897E-06
  0.294000000       1.05894765E-06
  0.294999987       5.92641868E-07
  0.296000004       7.28997804E-08
  0.296999991      -4.76552486E-07
  0.298000008      -1.02991783E-06
  0.298999995      -1.56052465E-06
  0.300000012      -2.04206208E-06
  0.300999999      -2.44983994E-06
  0.301999986      -2.76197670E-06
  0.303000003      -2.96049188E-06
  0.303999990      -3.03222146E-06
  0.305000007      -2.96953272E-06
  0.305999994      -2.77079630E-06
  0.307000011      -2.44059879E-06
  0.307999998      -1.98965040E-06
  0.308999985      -1.43444026E-06
  0.310000002      -7.96607310E-07
  0.310999990      -1.02056156E-07
  0.312000006       6.20107528E-07
  0.312999994       1.33882475E-06
  0.314000010       2.02244701E-06
  0.314999998       2.64011805E-06
  0.316000015       3.16318187E-06
  0.317000002       3.56648570E-06
  0.317999989       3.82955659E-06
  0.319000006       3.93760047E-06
  0.319999993       3.88224953E-06
  0.321000010       3.66203994E-06
  0.321999997       3.28259489E-06
  0.323000014       2.75649722E-06
  0.324000001       2.10285339E-06
  0.324999988       1.34656409E-06
  0.326000005       5.17319904E-07
  0.326999992      -3.51600249E-07
  0.328000009      -1.22472852E-06
  0.328999996      -2.06591335E-06
  0.330000013      -2.83986719E-06
  0.331000000      -3.51369499E-06
  0.331999987      -4.05835681E-06
  0.333000004      -4.44993566E-06
  0.333999991      -4.67075415E-06
  0.335000008      -4.71016710E-06
  0.335999995      -4.56511316E-06
  0.337000012      -4.24031032E-06
  0.338000000      -3.74811339E-06
  0.338999987      -3.10804671E-06
  0.340000004      -2.34603704E-06
  0.340999991      -1.49333493E-06
  0.342000008      -5.85198052E-07
  0.342999995       3.40588286E-07
  0.344000012       1.24532858E-06
  0.344999999       2.09109453E-06
  0.345999986       2.84234807E-06
  0.347000003       3.46751062E-06
  0.347999990       3.94033850E-06
  0.349000007       4.24109840E-06
  0.349999994       4.35744050E-06
  0.351000011       4.28498834E-06
  0.351999998       4.02751948E-06
  0.352999985       3.59689261E-06
  0.354000002       3.01250861E-06
  0.354999989       2.30050705E-06
  0.356000006       1.49264440E-06
  0.356999993       6.24925406E-07
  0.358000010      -2.64006161E-07
  0.358999997      -1.13450994E-06
  0.360000014      -1.94774429E-06
  0.361000001      -2.66736765E-06
  0.361999989      -3.26116242E-06
  0.363000005      -3.70249541E-06
  0.363999993      -3.97154372E-06
  0.365000010      -4.05615947E-06
  0.365999997      -3.95251254E-06
  0.367000014      -3.66526842E-06
  0.368000001      -3.20743652E-06
  0.368999988      -2.59984949E-06
  0.370000005      -1.87026092E-06
  0.370999992      -1.05215167E-06
  0.372000009      -1.83289217E-07
  0.372999996       6.95983772E-07
  0.374000013       1.54449538E-06
  0.375000000       2.32210778E-06
  0.375999987       2.99152885E-06
  0.377000004       3.52001143E-06
  0.377999991       3.88086755E-06
  0.379000008       4.05469791E-06
  0.379999995       4.03039985E-06
  0.381000012       3.80567349E-06
  0.381999999       3.38727659E-06
  0.382999986       2.79077904E-06
  0.384000003       2.04000708E-06
  0.384999990       1.16604235E-06
  0.386000007       2.05957321E-07
  0.386999995      -7.98805104E-07
  0.388000011      -1.80416100E-06
  0.388999999      -2.76534706E-06
  0.389999986      -3.63887580E-06
  0.391000003      -4.38445886E-06
  0.391999990      -4.96681741E-06
  0.393000007      -5.35729532E-06
  0.393999994      -5.53521340E-06
  0.395000011      -5.48882372E-06
  0.395999998      -5.21597349E-06
  0.397000015      -4.72427610E-06
  0.398000002      -4.03092190E-06
  0.398999989      -3.16203204E-06
  0.400000006      -2.15160276E-06
  0.400999993      -1.04017727E-06
  0.402000010       1.26907224E-07
  0.402999997       1.30133776E-06
  0.404000014       2.43391219E-06
  0.405000001       3.47668083E-06
  0.405999988       4.38493407E-06
  0.407000005       5.11919870E-06
  0.407999992       5.64695347E-06
  0.409000009       5.94406947E-06
  0.409999996       5.99592431E-06
  0.411000013       5.79809239E-06
  0.412000000       5.35657182E-06
  0.412999988       4.68768440E-06
  0.414000005       3.81736118E-06
  0.414999992       2.78015000E-06
  0.416000009       1.61778598E-06
  0.416999996       3.77482706E-07
  0.418000013      -8.90070339E-07
  0.419000000      -2.13281760E-06
  0.419999987      -3.29958175E-06
  0.421000004      -4.34213371E-06
  0.421999991      -5.21735546E-06
  0.423000008      -5.88901958E-06
  0.423999995      -6.32937463E-06
  0.425000012      -6.52030712E-06
  0.425999999      -6.45416867E-06
  0.426999986      -6.13407201E-06
  0.428000003      -5.57383964E-06
  0.428999990      -4.79737582E-06
  0.430000007      -3.83767065E-06
  0.430999994      -2.73543060E-06
  0.432000011      -1.53735391E-06
  0.432999998      -2.94102335E-07
  0.433999985       9.41823771E-07
  0.435000002       2.11829388E-06
  0.435999990       3.18582033E-06
  0.437000006       4.09959785E-06
  0.437999994       4.82147334E-06
  0.439000010       5.32154399E-06
  0.439999998       5.57936755E-06
  0.441000015       5.58488682E-06
  0.442000002       5.33881484E-06
  0.442999989       4.85255850E-06
  0.444000006       4.14772148E-06
  0.444999993       3.25516771E-06
  0.446000010       2.21365008E-06
  0.446999997       1.06811092E-06
  0.448000014      -1.32209280E-07
  0.449000001      -1.33595552E-06
  0.449999988      -2.49187315E-06
  0.451000005      -3.55095199E-06
  0.451999992      -4.46861168E-06
  0.453000009      -5.20652748E-06
  0.453999996      -5.73430907E-06
  0.455000013      -6.03072067E-06
  0.456000000      -6.08464234E-06
  0.456999987      -5.89540650E-06
  0.458000004      -5.47282207E-06
  0.458999991      -4.83671920E-06
  0.460000008      -4.01601892E-06
  0.460999995      -3.04737932E-06
  0.462000012      -1.97361646E-06
  0.463000000      -8.41840233E-07
  0.463999987       2.98698353E-07
  0.465000004       1.39868462E-06
  0.465999991       2.41095222E-06
  0.467000008       3.29246836E-06
  0.467999995       4.00620911E-06
  0.469000012       4.52275299E-06
  0.469999999       4.82150654E-06
  0.470999986       4.89148533E-06
  0.472000003       4.73179762E-06
  0.472999990       4.35155698E-06
  0.474000007       3.76944490E-06
  0.474999994       3.01281671E-06
  0.476000011       2.11641395E-06
  0.476999998       1.12071325E-06
  0.477999985       7.02065464E-08
  0.479000002      -9.88627107E-07
  0.479999989      -2.00948330E-06
  0.481000006      -2.94818801E-06
  0.481999993      -3.76465641E-06
  0.483000010      -4.42463943E-06
  0.483999997      -4.90126104E-06
  0.485000014      -5.17602984E-06
  0.486000001      -5.23970766E-06
  0.486999989      -5.09255915E-06
  0.488000005      -4.74432500E-06
  0.488999993      -4.21357709E-06
  0.490000010      -3.52696020E-06
  0.490999997      -2.71779368E-06
  0.492000014      -1.82449344E-06
  0.493000001      -8.88941713E-07
  0.493999988       4.55905287E-08
  0.495000005       9.36401989E-07
  0.495999992       1.74324748E-06
  0.497000009       2.43013164E-06
  0.497999996       2.96697863E-06
  0.499000013       3.33097887E-06
  0.500000000       3.50745700E-06
  0.500999987       3.49054108E-06
  0.501999974       3.28330907E-06
  0.503000021       2.89767331E-06
  0.504000008       2.35365474E-06
  0.504999995       1.67836504E-06
  0.505999982       9.04808019E-07
  0.507000029       7.01201159E-08
  0.508000016      -7.85905115E-07
  0.509000003      -1.62306878E-06
  0.509999990      -2.40239524E-06
  0.510999978      -3.08797348E-06
  0.512000024      -3.64878201E-06
  0.513000011      -4.05986793E-06
  0.513999999      -4.30376167E-06
  0.514999986      -4.37100016E-06
  0.515999973      -4.26076167E-06
  0.517000020      -3.98064230E-06
  0.518000007      -3.54635631E-06
  0.518999994      -2.98108034E-06
  0.519999981      -2.31399167E-06
  0.521000028      -1.57910313E-06
  0.522000015      -8.13507654E-07
  0.523000002      -5.56927731E-08
  0.523999989       6.56503744E-07
  0.524999976       1.28760917E-06
  0.526000023       1.80613574E-06
  0.527000010       2.18634113E-06
  0.527999997       2.40929307E-06
  0.528999984       2.46394097E-06
  0.529999971       2.34746722E-06
  0.531000018       2.06561367E-06
  0.532000005       1.63241032E-06
  0.532999992       1.06940388E-06
  0.533999979       4.04755468E-07
  0.535000026      -3.28098253E-07
  0.536000013      -1.09210646E-06
  0.537000000      -1.84843259E-06
  0.537999988      -2.55816872E-06
  0.538999975      -3.18452317E-06
  0.540000021      -3.69434451E-06
  0.541000009      -4.05988931E-06
  0.541999996      -4.26040970E-06
  0.542999983      -4.28289377E-06
  0.544000030      -4.12318605E-06
  0.545000017      -3.78594223E-06
  0.546000004      -3.28485748E-06
  0.546999991      -2.64182427E-06
  0.547999978      -1.88621880E-06
  0.549000025      -1.05347488E-06
  0.550000012      -1.83562506E-07
  0.550999999       6.80989444E-07
  0.551999986       1.49694358E-06
  0.552999973       2.22248036E-06
  0.554000020       2.81929101E-06
  0.555000007       3.25428823E-06
  0.555999994       3.50149503E-06
  0.556999981       3.54315898E-06
  0.558000028       3.37104916E-06
  0.559000015       2.98678447E-06
  0.560000002       2.40198551E-06
  0.560999990       1.63802054E-06
  0.561999977       7.25049233E-07
  0.563000023      -2.98949800E-07
  0.564000010      -1.39018698E-06
  0.564999998      -2.50055359E-06
  0.565999985      -3.57995077E-06
  0.566999972      -4.57877150E-06
  0.568000019      -5.44975319E-06
  0.569000006      -6.15048430E-06
  0.569999993      -6.64541267E-06
  0.570999980      -6.90744628E-06
  0.572000027      -6.91950072E-06
  0.573000014      -6.67552831E-06
  0.574000001      -6.18065815E-06
  0.574999988      -5.45151670E-06
  0.575999975      -4.51547567E-06
  0.577000022      -3.40986026E-06
  0.578000009      -2.18011883E-06
  0.578999996      -8.78259755E-07
  0.579999983       4.39706071E-07
  0.580999970       1.71584031E-06
  0.582000017       2.89310969E-06
  0.583000004       3.91780077E-06
  0.583999991       4.74193257E-06
  0.584999979       5.32568129E-06
  0.586000025       5.63896947E-06
  0.587000012       5.66322251E-06
  0.588000000       5.39224084E-06
  0.588999987       4.83272970E-06
  0.589999974       4.00411363E-06
  0.591000021       2.93792823E-06
  0.592000008       1.67650114E-06
  0.592999995       2.71591404E-07
  0.593999982      -1.21823905E-06
  0.595000029      -2.72977263E-06
  0.596000016      -4.19790649E-06
  0.597000003      -5.55851784E-06
  0.597999990      -6.75131241E-06
  0.598999977      -7.72239582E-06
  0.600000024      -8.42685313E-06
  0.601000011      -8.83061148E-06
  0.601999998      -8.91240961E-06
  0.602999985      -8.66462415E-06
  0.603999972      -8.09367793E-06
  0.605000019      -7.22032109E-06
  0.606000006      -6.07848369E-06
  0.606999993      -4.71438534E-06
  0.607999980      -3.18395678E-06
  0.609000027      -1.55176110E-06
  0.610000014       1.13196094E-07
  0.611000001       1.73944102E-06
  0.611999989       3.25617043E-06
  0.612999976       4.59665671E-06
  0.614000022       5.70098837E-06
  0.615000010       6.51858363E-06
  0.615999997       7.01090494E-06
  0.616999984       7.15287888E-06
  0.617999971       6.93403535E-06
  0.619000018       6.35931519E-06
  0.620000005       5.44924205E-06
  0.620999992       4.23848451E-06
  0.621999979       2.77528216E-06
  0.623000026       1.11883355E-06
  0.624000013      -6.62670345E-07
  0.625000000      -2.49493291E-06
  0.625999987      -4.30114596E-06
  0.626999974      -6.00475732E-06
  0.628000021      -7.53299537E-06
  0.629000008      -8.81985397E-06
  0.629999995      -9.80900950E-06
  0.630999982      -1.04563796E-05
  0.632000029      -1.07319693E-05
  0.633000016      -1.06214256E-05
  0.634000003      -1.01265568E-05
  0.634999990      -9.26545181E-06
  0.635999978      -8.07167453E-06
  0.637000024      -6.59329089E-06
  0.638000011      -4.89026888E-06
  0.638999999      -3.03289221E-06
  0.639999986      -1.09770315E-06
  0.640999973       8.34648858E-07
  0.642000020       2.68336953E-06
  0.643000007       4.37106610E-06
  0.643999994       5.82665871E-06
  0.644999981       6.98856093E-06
  0.646000028       7.80745358E-06
  0.647000015       8.24819108E-06
  0.648000002       8.29150304E-06
  0.648999989       7.93486561E-06
  0.649999976       7.19247282E-06
  0.651000023       6.09455265E-06
  0.652000010       4.68669214E-06
  0.652999997       3.02726949E-06
  0.653999984       1.18544256E-06
  0.654999971      -7.62244554E-07
  0.656000018      -2.73450951E-06
  0.657000005      -4.64930235E-06
  0.657999992      -6.42701980E-06
  0.658999979      -7.99393638E-06
  0.660000026      -9.28528334E-06
  0.661000013      -1.02481108E-05
  0.662000000      -1.08429795E-05
  0.662999988      -1.10471092E-05
  0.663999975      -1.08533895E-05
  0.665000021      -1.02717240E-05
  0.666000009      -9.32840885E-06
  0.666999996      -8.06517528E-06
  0.667999983      -6.53682218E-06
  0.669000030      -4.80933295E-06
  0.670000017      -2.95661812E-06
  0.671000004      -1.05790468E-06
  0.671999991       8.06357434E-07
  0.672999978       2.55767850E-06
  0.674000025       4.12256486E-06
  0.675000012       5.43611304E-06
  0.675999999       6.44420379E-06
  0.676999986       7.10663289E-06
  0.677999973       7.39813686E-06
  0.679000020       7.30914326E-06
  0.680000007       6.84716088E-06
  0.680999994       6.03517765E-06
  0.681999981       4.91147466E-06
  0.683000028       3.52698726E-06
  0.684000015       1.94446125E-06
  0.685000002       2.33788285E-07
  0.685999990      -1.52912810E-06
  0.686999977      -3.26759687E-06
  0.688000023      -4.90537332E-06
  0.689000010      -6.37226958E-06
  0.689999998      -7.60494549E-06
  0.690999985      -8.55176586E-06
  0.691999972      -9.17280249E-06
  0.693000019      -9.44394742E-06
  0.694000006      -9.35520347E-06
  0.694999993      -8.91295986E-06
  0.695999980      -8.13910447E-06
  0.697000027      -7.06990704E-06
  0.698000014      -5.75389049E-06
  0.699000001      -4.25045482E-06
  0.699999988      -2.62703452E-06
  0.700999975      -9.55180440E-07
  0.702000022       6.91314085E-07
  0.703000009       2.24068913E-06
  0.703999996       3.62562514E-06
  0.704999983       4.78650691E-06
  0.705999970       5.67405777E-06
  0.707000017       6.25151961E-06
  0.708000004       6.49593903E-06
  0.708999991       6.39889868E-06
  0.709999979       5.96749396E-06
  0.711000025       5.22307209E-06
  0.712000012       4.20113292E-06
  0.713000000       2.94876259E-06
  0.713999987       1.52317818E-06
  0.714999974      -1.16226566E-08
  0.716000021      -1.58656803E-06
  0.717000008      -3.13195164E-06
  0.717999995      -4.57958913E-06
  0.718999982      -5.86602209E-06
  0.720000029      -6.93543780E-06
  0.721000016      -7.74225282E-06
  0.722000003      -8.25233474E-06
  0.722999990      -8.44520946E-06
  0.723999977      -8.31446141E-06
  0.725000024      -7.86792316E-06
  0.726000011      -7.12734072E-06
  0.726999998      -6.12762051E-06
  0.727999985      -4.91409219E-06
  0.728999972      -3.54151416E-06
  0.730000019      -2.07116568E-06
  0.731000006      -5.68015651E-07
  0.731999993       9.02387512E-07
  0.732999980       2.27637042E-06
  0.734000027       3.49512038E-06
  0.735000014       4.50771859E-06
  0.736000001       5.27275324E-06
  0.736999989       5.76010325E-06
  0.737999976       5.95297524E-06
  0.739000022       5.84693134E-06
  0.740000010       5.45211469E-06
  0.740999997       4.79088931E-06
  0.741999984       3.89707020E-06
  0.742999971       2.81491566E-06
  0.744000018       1.59637818E-06
  0.745000005       2.99028130E-07
  0.745999992      -1.01650312E-06
  0.746999979      -2.29050011E-06
  0.748000026      -3.46442812E-06
  0.749000013      -4.48632500E-06
  0.750000000      -5.31154092E-06
  0.750999987      -5.90417494E-06
  0.751999974      -6.24061249E-06
  0.753000021      -6.30866407E-06
  0.754000008      -6.10864845E-06
  0.754999995      -5.65285472E-06
  0.755999982      -4.96597977E-06
  0.757000029      -4.08279402E-06
  0.758000016      -3.04570631E-06
  0.759000003      -1.90504693E-06
  0.759999990      -7.14293776E-07
  0.760999978       4.71520309E-07
  0.762000024       1.59775311E-06
  0.763000011       2.61412492E-06
  0.763999999       3.47562354E-06
  0.764999986       4.14587021E-06
  0.765999973       4.59757030E-06
  0.767000020       4.81480311E-06
  0.768000007       4.79261416E-06
  0.768999994       4.53812800E-06
  0.769999981       4.06932031E-06
  0.771000028       3.41400164E-06
  0.772000015       2.60991555E-06
  0.773000002       1.69988755E-06
  0.773999989       7.33295337E-07
  0.774999976      -2.39678116E-07
  0.776000023      -1.16838601E-06
  0.777000010      -2.00460931E-06
  0.777999997      -2.70614851E-06
  0.778999984      -3.23631252E-06
  0.779999971      -3.56825171E-06
  0.781000018      -3.68572341E-06
  0.782000005      -3.58239845E-06
  0.782999992      -3.26373447E-06
  0.783999979      -2.74549370E-06
  0.785000026      -2.05508763E-06
  0.786000013      -1.22629217E-06
  0.787000000      -3.02950014E-07
  0.787999988       6.68821883E-07
  0.788999975       1.63828281E-06
  0.790000021       2.55565783E-06
  0.791000009       3.37321558E-06
  0.791999996       4.04810635E-06
  0.792999983       4.54416249E-06
  0.794000030       4.83401573E-06
  0.795000017       4.90117509E-06
  0.796000004       4.73946875E-06
  0.796999991       4.35511583E-06
  0.797999978       3.76566254E-06
  0.799000025       2.99887188E-06
  0.800000012       2.09302812E-06
  0.800999999       1.09378436E-06
  0.801999986       5.19125010E-08
  0.802999973      -9.77440664E-07
  0.804000020      -1.93932192E-06
  0.805000007      -2.78003131E-06
  0.805999994      -3.45177818E-06
  0.806999981      -3.91307822E-06
  0.808000028      -4.13218777E-06
  0.809000015      -4.08690630E-06
  0.810000002      -3.76979074E-06
  0.810999990      -3.18466255E-06
  0.811999977      -2.34873119E-06
  0.813000023      -1.29163755E-06
  0.814000010      -5.47406245E-08
  0.814999998       1.31153126E-06
  0.815999985       2.74862805E-06
  0.816999972       4.19389380E-06
  0.818000019       5.58190959E-06
  0.819000006       6.84876568E-06
  0.819999993       7.93408799E-06
  0.820999980       8.78483479E-06
  0.822000027       9.35684420E-06
  0.823000014       9.61818478E-06
  0.824000001       9.54994994E-06
  0.824999988       9.14768771E-06
  0.825999975       8.42279678E-06
  0.827000022       7.40085943E-06
  0.828000009       6.12137819E-06
  0.828999996       4.63694687E-06
  0.829999983       3.01007822E-06
  0.830999970       1.31080003E-06
  0.832000017      -3.85184393E-07
  0.833000004      -2.00114687E-06
  0.833999991      -3.46299066E-06
  0.834999979      -4.70006262E-06
  0.836000025      -5.65246592E-06
  0.837000012      -6.26958126E-06
  0.838000000      -6.51632490E-06
  0.838999987      -6.37230642E-06
  0.839999974      -5.83381279E-06
  0.841000021      -4.91432502E-06
  0.842000008      -3.64463449E-06
  0.842999995      -2.07095309E-06
  0.843999982      -2.53578122E-07
  0.845000029       1.73630622E-06
  0.846000016       3.81663131E-06
  0.847000003       5.90251238E-06
  0.847999990       7.90709692E-06
  0.848999977       9.74479099E-06
  0.850000024       1.13362939E-05
  0.851000011       1.26121504E-05
  0.851999998       1.35158753E-05
  0.852999985       1.40052125E-05
  0.853999972       1.40564780E-05
  0.855000019       1.36640474E-05
  0.856000006       1.28404718E-05