   0.00000000       0.00000000    
   1.00000005E-03   0.00000000    
   2.00000009E-03   0.00000000    
   3.00000003E-03   0.00000000    
   4.00000019E-03   0.00000000    
   4.99999989E-03   0.00000000    
   6.00000005E-03   0.00000000    
   7.00000022E-03   0.00000000    
   8.00000038E-03   0.00000000    
   8.99999961E-03   0.00000000    
   9.99999978E-03   0.00000000    
   1.09999999E-02   0.00000000    
   1.20000001E-02   0.00000000    
   1.30000003E-02   0.00000000    
   1.40000004E-02   0.00000000    
   1.49999997E-02   0.00000000    
   1.60000008E-02   0.00000000    
   1.70000009E-02  -3.89904375E-38
   1.79999992E-02  -2.68308007E-37
   1.89999994E-02  -9.50163405E-37
   1.99999996E-02  -2.96592403E-36
   2.09999997E-02  -7.34633460E-36
   2.19999999E-02  -1.62468845E-35
   2.30000000E-02  -3.61650193E-35
   2.40000002E-02  -7.09204957E-35
   2.50000004E-02  -1.27062456E-34
   2.60000005E-02  -2.17375492E-34
   2.70000007E-02  -3.56743089E-34
   2.80000009E-02  -5.55190620E-34
   2.89999992E-02  -8.10419234E-34
   2.99999993E-02  -1.09619385E-33
   3.09999995E-02  -1.32501016E-33
   3.20000015E-02  -1.30177587E-33
   3.29999998E-02  -6.57988611E-34
   3.40000018E-02   1.24331450E-33
   3.50000001E-02   5.42374710E-33
   3.59999985E-02   1.34158054E-32
   3.70000005E-02   2.73808487E-32
   3.79999988E-02   5.01706279E-32
   3.90000008E-02   8.52677800E-32
   3.99999991E-02   1.36502330E-31
   4.10000011E-02   2.07403683E-31
   4.19999994E-02   3.00018367E-31
   4.30000015E-02   4.12989110E-31
   4.39999998E-02   5.38685097E-31
   4.50000018E-02   6.59199741E-31
   4.60000001E-02   7.41112607E-31
   4.69999984E-02   7.29070514E-31
   4.80000004E-02   5.38500968E-31
   4.89999987E-02   4.81523863E-32
   5.00000007E-02  -9.06330031E-31
   5.09999990E-02  -2.53593026E-30
   5.20000011E-02  -5.09625626E-30
   5.29999994E-02  -8.87654040E-30
   5.40000014E-02  -1.41753560E-29
   5.49999997E-02  -2.12581183E-29
   5.60000017E-02  -3.02911074E-29
   5.70000000E-02  -4.12470247E-29
   5.79999983E-02  -5.37781932E-29
   5.90000004E-02  -6.70558612E-29
   5.99999987E-02  -7.95778244E-29
   6.10000007E-02  -8.89522101E-29
   6.19999990E-02  -9.16727788E-29
   6.30000010E-02  -8.29107846E-29
   6.40000030E-02  -5.63598241E-29
   6.49999976E-02  -4.18292123E-30
   6.59999996E-02   8.28756063E-29
   6.70000017E-02   2.15138629E-28
   6.80000037E-02   4.03320569E-28
   6.89999983E-02   6.57438816E-28
   7.00000003E-02   9.85226989E-28
   7.10000023E-02   1.38998043E-27
   7.19999969E-02   1.86779305E-27
   7.29999989E-02   2.40419459E-27
   7.40000010E-02   2.97026546E-27
   7.50000030E-02   3.51839667E-27
   7.59999976E-02   3.97798172E-27
   7.69999996E-02   4.25145800E-27
   7.80000016E-02   4.21126731E-27
   7.90000036E-02   3.69846689E-27
   7.99999982E-02   2.52387130E-27
   8.10000002E-02   4.72732312E-28
   8.20000023E-02  -2.68594677E-27
   8.29999968E-02  -7.18435656E-27
   8.39999989E-02  -1.32340646E-26
   8.50000009E-02  -2.09966362E-26
   8.60000029E-02  -3.05462535E-26
   8.69999975E-02  -4.18244746E-26
   8.79999995E-02  -5.45880098E-26
   8.90000015E-02  -6.83513708E-26
   9.00000036E-02  -8.23274592E-26
   9.09999982E-02  -9.53704053E-26
   9.20000002E-02  -1.05926541E-25
   9.30000022E-02  -1.12000770E-25
   9.39999968E-02  -1.11147013E-25
   9.49999988E-02  -1.00492683E-25
   9.60000008E-02  -7.68076824E-26
   9.70000029E-02  -3.66288025E-26
   9.79999974E-02   2.35504794E-26
   9.89999995E-02   1.07016377E-25
  0.100000001       2.16491979E-25
  0.101000004       3.53714211E-25
  0.101999998       5.18935383E-25
  0.103000000       7.10361603E-25
  0.104000002       9.23549537E-25
  0.104999997       1.15079246E-24
  0.105999999       1.38053814E-24
  0.107000001       1.59689231E-24
  0.108000003       1.77927163E-24
  0.108999997       1.90228029E-24
  0.109999999       1.93589050E-24
  0.111000001       1.84601104E-24
  0.112000003       1.59552413E-24
  0.112999998       1.14586573E-24
  0.114000000       4.59204906E-25
  0.115000002      -4.98744981E-25
  0.115999997      -1.75528434E-24
  0.116999999      -3.32670020E-24
  0.118000001      -5.21375133E-24
  0.119000003      -7.39682370E-24
  0.119999997      -9.83098260E-24
  0.120999999      -1.24412153E-23
  0.122000001      -1.51182305E-23
  0.123000003      -1.77152395E-23
  0.123999998      -2.00461988E-23
  0.125000000      -2.18860370E-23
  0.126000002      -2.29733777E-23
  0.127000004      -2.30162728E-23
  0.128000006      -2.17013915E-23
  0.128999993      -1.87070144E-23
  0.129999995      -1.37200172E-23
  0.130999997      -6.45685846E-24
  0.131999999       3.31167752E-24
  0.133000001       1.57325149E-23
  0.134000003       3.08399680E-23
  0.135000005       4.85242605E-23
  0.136000007       6.85004843E-23
  0.136999995       9.02798610E-23
  0.137999997       1.13145600E-22
  0.138999999       1.36135834E-22
  0.140000001       1.58036153E-22
  0.141000003       1.77384551E-22
  0.142000005       1.92491388E-22
  0.143000007       2.01476438E-22
  0.143999994       2.02324988E-22
  0.144999996       1.92964099E-22
  0.145999998       1.71359180E-22
  0.147000000       1.35630004E-22
  0.148000002       8.41840867E-23
  0.149000004       1.58637561E-23
  0.150000006      -6.98980744E-23
  0.150999993      -1.72919976E-22
  0.151999995      -2.92119863E-22
  0.152999997      -4.25378034E-22
  0.153999999      -5.69425196E-22
  0.155000001      -7.19766939E-22
  0.156000003      -8.70654548E-22
  0.157000005      -1.01511379E-21
  0.158000007      -1.14503991E-21
  0.158999994      -1.25136634E-21
  0.159999996      -1.32431232E-21
  0.160999998      -1.35371066E-21
  0.162000000      -1.32941273E-21
  0.163000003      -1.24176380E-21
  0.164000005      -1.08213692E-21
  0.165000007      -8.43507989E-22
  0.165999994      -5.21050226E-22
  0.166999996      -1.12721534E-22
  0.167999998       3.80185366E-22
  0.169000000       9.52562594E-22
  0.170000002       1.59511078E-21
  0.171000004       2.29409940E-21
  0.172000006       3.03129565E-21
  0.172999993       3.78408715E-21
  0.173999995       4.52581613E-21
  0.174999997       5.22633996E-21
  0.175999999       5.85281255E-21
  0.177000001       6.37067447E-21
  0.178000003       6.74482708E-21
  0.179000005       6.94095007E-21
  0.180000007       6.92690819E-21
  0.180999994       6.67418472E-21
  0.181999996       6.15926439E-21
  0.182999998       5.36489433E-21
  0.184000000       4.28113465E-21
  0.185000002       2.90612884E-21
  0.186000004       1.24652938E-21
  0.187000006      -6.82471564E-22
  0.187999994      -2.85752976E-21
  0.188999996      -5.24795208E-21
  0.189999998      -7.81687779E-21
  0.191000000      -1.05227681E-20
  0.192000002      -1.33210846E-20
  0.193000004      -1.61660172E-20
  0.194000006      -1.90120808E-20
  0.194999993      -2.18153749E-20
  0.195999995      -2.45342917E-20
  0.196999997      -2.71294561E-20
  0.197999999      -2.95627048E-20
  0.199000001      -3.17949325E-20
  0.200000003      -3.37827315E-20
  0.201000005      -3.54737860E-20
  0.202000007      -3.68011265E-20
  0.202999994      -3.76764516E-20
  0.203999996      -3.79828671E-20
  0.204999998      -3.75675546E-20
  0.206000000      -3.62350151E-20
  0.207000002      -3.37416698E-20
  0.208000004      -2.97927515E-20
  0.209000006      -2.40424698E-20
  0.209999993      -1.60984970E-20
  0.210999995      -5.53181801E-21
  0.211999997       8.10713983E-21
  0.213000000       2.52653222E-20
  0.214000002       4.63562872E-20
  0.215000004       7.17217484E-20
  0.216000006       1.01585702E-19
  0.216999993       1.36002038E-19
  0.217999995       1.74796989E-19
  0.218999997       2.17508693E-19
  0.219999999       2.63326692E-19
  0.221000001       3.11034800E-19
  0.222000003       3.58961696E-19
  0.223000005       4.04943968E-19
  0.224000007       4.46306850E-19
  0.224999994       4.79867946E-19
  0.225999996       5.01969540E-19
  0.226999998       5.08544282E-19
  0.228000000       4.95219126E-19
  0.229000002       4.57460347E-19
  0.230000004       3.90761750E-19
  0.231000006       2.90876020E-19
  0.231999993       1.54087282E-19
  0.232999995      -2.24804685E-20
  0.233999997      -2.40526493E-19
  0.234999999      -5.00218812E-19
  0.236000001      -7.99836038E-19
  0.237000003      -1.13542264E-18
  0.238000005      -1.50047751E-18
  0.238999993      -1.88569759E-18
  0.239999995      -2.27880111E-18
  0.240999997      -2.66445422E-18
  0.241999999      -3.02432742E-18
  0.243000001      -3.33730257E-18
  0.244000003      -3.57985282E-18
  0.245000005      -3.72661037E-18
  0.246000007      -3.75113297E-18
  0.246999994      -3.62687142E-18
  0.247999996      -3.32833180E-18
  0.248999998      -2.83241552E-18
  0.250000000      -2.11991026E-18
  0.250999987      -1.17709207E-18
  0.252000004       2.61549340E-21
  0.252999991       1.41698831E-18
  0.254000008       3.05342928E-18
  0.254999995       4.88756374E-18
  0.256000012       6.88209348E-18
  0.256999999       8.98600793E-18
  0.257999986       1.11342481E-17
  0.259000003       1.32479195E-17
  0.259999990       1.52351399E-17
  0.261000007       1.69925910E-17
  0.261999995       1.84078325E-17
  0.263000011       1.93624006E-17
  0.263999999       1.97356940E-17
  0.264999986       1.94096127E-17
  0.266000003       1.82738673E-17
  0.266999990       1.62318512E-17
  0.268000007       1.32069170E-17
  0.268999994       9.14884919E-18
  0.270000011       4.04029587E-18
  0.270999998      -2.09711254E-18
  0.272000015      -9.19728144E-18
  0.273000002      -1.71451148E-17
  0.273999989      -2.57732704E-17
  0.275000006      -3.48605475E-17
  0.275999993      -4.41322165E-17
  0.277000010      -5.32625699E-17
  0.277999997      -6.18799324E-17
  0.279000014      -6.95743069E-17
  0.280000001      -7.59076980E-17
  0.280999988      -8.04271283E-17
  0.282000005      -8.26801962E-17
  0.282999992      -8.22328967E-17
  0.284000009      -7.86893542E-17
  0.284999996      -7.17128930E-17
  0.286000013      -6.10478350E-17
  0.287000000      -4.65412113E-17
  0.287999988      -2.81635146E-17
  0.289000005      -6.02756421E-18
  0.289999992       1.95955861E-17
  0.291000009       4.82647116E-17
  0.291999996       7.93614616E-17
  0.293000013       1.12089352E-16
  0.294000000       1.45479550E-16
  0.294999987       1.78404104E-16
  0.296000004       2.09597151E-16
  0.296999991       2.37684168E-16
  0.298000008       2.61219482E-16
  0.298999995       2.78731200E-16
  0.300000012       2.88773225E-16
  0.300999999       2.89982894E-16
  0.301999986       2.81142914E-16
  0.303000003       2.61245581E-16
  0.303999990       2.29557258E-16
  0.305000007       1.85680448E-16
  0.305999994       1.29611010E-16
  0.307000011       6.17874536E-17
  0.307999998      -1.68703188E-17
  0.308999985      -1.04935762E-16
  0.310000002      -2.00466361E-16
  0.310999990      -3.01012587E-16
  0.312000006      -4.03646960E-16
  0.312999994      -5.05014437E-16
  0.314000010      -6.01404510E-16
  0.314999998      -6.88845309E-16
  0.316000015      -7.63218031E-16
  0.317000002      -8.20390002E-16
  0.317999989      -8.56363492E-16
  0.319000006      -8.67436330E-16
  0.319999993      -8.50369463E-16
  0.321000010      -8.02556094E-16
  0.321999997      -7.22186167E-16
  0.323000014      -6.08399414E-16
  0.324000001      -4.61420139E-16
  0.324999988      -2.82666462E-16
  0.326000005      -7.48275258E-17
  0.326999992       1.58097892E-16
  0.328000009       4.10806532E-16
  0.328999996       6.76744279E-16
  0.330000013       9.48211139E-16
  0.331000000       1.21651846E-15
  0.331999987       1.47219853E-15
  0.333000004       1.70526409E-15
  0.333999991       1.90551200E-15
  0.335000008       2.06286531E-15
  0.335999995       2.16774451E-15
  0.337000012       2.21145670E-15
  0.338000000       2.18658993E-15
  0.338999987       2.08739941E-15
  0.340000004       1.91017005E-15
  0.340999991       1.65353823E-15
  0.342000008       1.31875978E-15
  0.342999995       9.09907779E-16
  0.344000012       4.33985324E-16
  0.344999999      -9.90565857E-17
  0.345999986      -6.76406419E-16
  0.347000003      -1.28259126E-15
  0.347999990      -1.89978966E-15
  0.349000007      -2.50825726E-15
  0.349999994      -3.08685869E-15
  0.351000011      -3.61369624E-15
  0.351999998      -4.06681990E-15
  0.352999985      -4.42499922E-15
  0.354000002      -4.66853390E-15
  0.354999989      -4.78007755E-15
  0.356000006      -4.74544195E-15
  0.356999993      -4.55435470E-15
  0.358000010      -4.20113646E-15
  0.358999997      -3.68526332E-15
  0.360000014      -3.01178849E-15
  0.361000001      -2.19159462E-15
  0.361999989      -1.24145299E-15
  0.363000005      -1.83873065E-16
  0.363999993       9.53268984E-16
  0.365000010       2.13732607E-15
  0.365999997       3.33169483E-15
  0.367000014       4.49683693E-15
  0.368000001       5.59148217E-15
  0.368999988       6.57398618E-15
  0.370000005       7.40379895E-15
  0.370999992       8.04300135E-15
  0.372000009       8.45785183E-15
  0.372999996       8.62029157E-15
  0.374000013       8.50934805E-15
  0.375000000       8.11236827E-15
  0.375999987       7.42603272E-15
  0.377000004       6.45709436E-15
  0.377999991       5.22278525E-15
  0.379000008       3.75086645E-15
  0.379999995       2.07928293E-15
  0.381000012       2.55412409E-16
  0.381999999      -1.66508964E-15
  0.382999986      -3.61983596E-15
  0.384000003      -5.54160972E-15
  0.384999990      -7.36057570E-15
  0.386000007      -9.00673680E-15
  0.386999995      -1.04125557E-14
  0.388000011      -1.15156526E-14
  0.388999999      -1.22614838E-14
  0.389999986      -1.26058848E-14
  0.391000003      -1.25173809E-14
  0.391999990      -1.19791541E-14
  0.393000007      -1.09905650E-14
  0.393999994      -9.56814092E-15
  0.395000011      -7.74595791E-15
  0.395999998      -5.57535890E-15
  0.397000015      -3.12396889E-15
  0.398000002      -4.74009590E-16
  0.398999989       2.28007590E-15
  0.400000006       5.03463551E-15
  0.400999993       7.68038316E-15
  0.402000010       1.01064304E-14
  0.402999997       1.22046436E-14
  0.404000014       1.38741778E-14
  0.405000001       1.50260087E-14
  0.405999988       1.55872900E-14
  0.407000005       1.55053430E-14
  0.407999992       1.47510872E-14
  0.409000009       1.33217446E-14
  0.409999996       1.12426548E-14
  0.411000013       8.56805590E-15
  0.412000000       5.38074207E-15
  0.412999988       1.79051881E-15
  0.414000005      -2.06855441E-15
  0.414999992      -6.04211048E-15
  0.416000009      -9.96053910E-15
  0.416999996      -1.36450350E-14
  0.418000013      -1.69144534E-14
  0.419000000      -1.95927547E-14
  0.419999987      -2.15167714E-14
  0.421000004      -2.25440072E-14
  0.421999991      -2.25601466E-14
  0.423000008      -2.14859512E-14
  0.423999995      -1.92832116E-14
  0.425000012      -1.59594390E-14
  0.425999999      -1.15710291E-14
  0.426999986      -6.22462659E-15
  0.428000003      -7.65292150E-17
  0.428999990       6.67000499E-15
  0.430000007       1.37695929E-14
  0.430999994       2.09416631E-14
  0.432000011       2.78793661E-14
  0.432999998       3.42602567E-14
  0.433999985       3.97584289E-14
  0.435000002       4.40577377E-14
  0.435999990       4.68656418E-14
  0.437000006       4.79271503E-14
  0.437999994       4.70383383E-14
  0.439000010       4.40588186E-14
  0.439999998       3.89226140E-14
  0.441000015       3.16468721E-14
  0.442000002       2.23378834E-14
  0.442999989       1.11939792E-14
  0.444000006      -1.49505169E-15
  0.444999993      -1.53522723E-14
  0.446000010      -2.99217336E-14
  0.446999997      -4.46804086E-14
  0.448000014      -5.90537344E-14
  0.449000001      -7.24344358E-14
  0.449999988      -8.42040806E-14
  0.451000005      -9.37567691E-14
  0.451999992      -1.00524183E-13
  0.453000009      -1.04001057E-13
  0.453999996      -1.03770135E-13
  0.455000013      -9.95255920E-14
  0.456000000      -9.10938805E-14
  0.456999987      -7.84509990E-14
  0.458000004      -6.17351900E-14
  0.458999991      -4.12543196E-14
  0.460000008      -1.74871697E-14
  0.460999995       8.92180989E-15
  0.462000012       3.71745820E-14
  0.463000000       6.63384820E-14
  0.463999987       9.53718102E-14
  0.465000004       1.23155595E-13
  0.465999991       1.48530656E-13
  0.467000008       1.70339071E-13
  0.467999995       1.87468652E-13
  0.469000012       1.98899003E-13
  0.469999999       2.03747474E-13
  0.470999986       2.01313277E-13
  0.472000003       1.91117914E-13
  0.472999990       1.72940126E-13
  0.474000007       1.46843678E-13
  0.474999994       1.13196372E-13
  0.476000011       7.26788692E-14
  0.476999998       2.62824295E-14
  0.477999985      -2.47052575E-14
  0.479000002      -7.87264134E-14
  0.479999989      -1.33991559E-13
  0.481000006      -1.88529327E-13
  0.481999993      -2.40246679E-13
  0.483000010      -2.86997937E-13
  0.483999997      -3.26660682E-13
  0.485000014      -3.57216210E-13
  0.486000001      -3.76831839E-13
  0.486999989      -3.83942064E-13
  0.488000005      -3.77325585E-13
  0.488999993      -3.56174996E-13
  0.490000010      -3.20156147E-13
  0.490999997      -2.69454218E-13
  0.492000014      -2.04803988E-13
  0.493000001      -1.27502081E-13
  0.493999988      -3.93995410E-14
  0.495000005       5.71262059E-14
  0.495999992       1.59220429E-13
  0.497000009       2.63620722E-13
  0.497999996       3.66746076E-13
  0.499000013       4.64803380E-13
  0.500000000       5.53908590E-13
  0.500999987       6.30219184E-13
  0.501999974       6.90073758E-13
  0.503000021       7.30134323E-13
  0.504000008       7.47526390E-13
  0.504999995       7.39971452E-13
  0.505999982       7.05906904E-13
  0.507000029       6.44588278E-13
  0.508000016       5.56169043E-13
  0.509000003       4.41753865E-13
  0.509999990       3.03421811E-13
  0.510999978       1.44216711E-13
  0.512000024      -3.18967129E-14
  0.513000011      -2.20111445E-13
  0.513999999      -4.14890886E-13
  0.514999986      -6.10113631E-13
  0.515999973      -7.99246953E-13
  0.517000020      -9.75545165E-13
  0.518000007      -1.13226616E-12
  0.518999994      -1.26290124E-12
  0.519999981      -1.36140957E-12
  0.521000028      -1.42244983E-12
  0.522000015      -1.44160129E-12
  0.523000002      -1.41556591E-12
  0.523999989      -1.34234312E-12
  0.524999976      -1.22137023E-12
  0.526000023      -1.05362182E-12
  0.527000010      -8.41662081E-13
  0.527999997      -5.89646604E-13
  0.528999984      -3.03270701E-13
  0.529999971       1.03368513E-14
  0.531000018       3.42773525E-13
  0.532000005       6.84573546E-13
  0.532999992       1.02546444E-12
  0.533999979       1.35466302E-12
  0.535000026       1.66120286E-12
  0.536000013       1.93428346E-12
  0.537000000       2.16363082E-12
  0.537999988       2.33985682E-12
  0.538999975       2.45480632E-12
  0.540000021       2.50187891E-12
  0.541000009       2.47631408E-12
  0.541999996       2.37542798E-12
  0.542999983       2.19879215E-12
  0.544000030       1.94834556E-12
  0.545000017       1.62843447E-12
  0.546000004       1.24577312E-12
  0.546999991       8.09326889E-13
  0.547999978       3.30115872E-13
  0.549000025      -1.79056368E-13
  0.550000012      -7.03942763E-13
  0.550999999      -1.22925314E-12
  0.551999986      -1.73910409E-12
  0.552999973      -2.21750483E-12
  0.554000020      -2.64886355E-12
  0.555000007      -3.01850060E-12
  0.555999994      -3.31314858E-12
  0.556999981      -3.52142382E-12
  0.558000028      -3.63425371E-12
  0.559000015      -3.64524209E-12
  0.560000002      -3.55095836E-12
  0.560999990      -3.35114250E-12
  0.561999977      -3.04881012E-12
  0.563000023      -2.65025523E-12
  0.564000010      -2.16494661E-12
  0.564999998      -1.60531722E-12
  0.565999985      -9.86450505E-13
  0.566999972      -3.25671808E-13
  0.568000019       3.57945065E-13
  0.569000006       1.04414253E-12
  0.569999993       1.71209726E-12
  0.570999980       2.34107417E-12
  0.572000027       2.91109368E-12
  0.573000014       3.40359230E-12
  0.574000001       3.80205329E-12
  0.574999988       4.09258565E-12
  0.575999975       4.26443342E-12
  0.577000022       4.31039145E-12
  0.578000009       4.22711649E-12
  0.578999996       4.01531803E-12
  0.579999983       3.67982164E-12
  0.580999970       3.22949783E-12
  0.582000017       2.67705584E-12
  0.583000004       2.03870818E-12
  0.583999991       1.33371179E-12
  0.584999979       5.83799610E-13
  0.586000025      -1.87480782E-13
  0.587000012      -9.55501737E-13
  0.588000000      -1.69534048E-12
  0.588999987      -2.38258979E-12
  0.589999974      -2.99416655E-12
  0.591000021      -3.50909254E-12
  0.592000008      -3.90922104E-12
  0.592999995      -4.17988257E-12
  0.593999982      -4.31042918E-12
  0.595000029      -4.29465491E-12
  0.596000016      -4.13107786E-12
  0.597000003      -3.82307207E-12
  0.597999990      -3.37884234E-12
  0.598999977      -2.81123800E-12
  0.600000024      -2.13741308E-12
  0.601000011      -1.37833820E-12
  0.601999998      -5.58180076E-13
  0.602999985       2.96433180E-13
  0.603999972       1.15723945E-12
  0.605000019       1.99523514E-12
  0.606000006       2.78160633E-12
  0.606999993       3.48866487E-12
  0.607999980       4.09076419E-12
  0.609000027       4.56515988E-12
  0.610000014       4.89278800E-12
  0.611000001       5.05893504E-12
  0.611999989       5.05377597E-12
  0.612999976       4.87276278E-12
  0.614000022       4.51684827E-12
  0.615000010       3.99253677E-12
  0.615999997       3.31175885E-12
  0.616999984       2.49157357E-12
  0.617999971       1.55370660E-12
  0.619000018       5.23937285E-13
  0.620000005      -5.68645174E-13
  0.620999992      -1.69249358E-12
  0.621999979      -2.81453550E-12
  0.623000026      -3.90115674E-12
  0.624000013      -4.91920654E-12
  0.625000000      -5.83699018E-12
  0.625999987      -6.62521513E-12
  0.626999974      -7.25787095E-12
  0.628000021      -7.71300385E-12
  0.629000008      -7.97336763E-12
  0.629999995      -8.02693328E-12
  0.630999982      -7.86723898E-12
  0.632000029      -7.49357347E-12
  0.633000016      -6.91098871E-12
  0.634000003      -6.13014110E-12
  0.634999990      -5.16697492E-12
  0.635999978      -4.04225481E-12
  0.637000024      -2.78096686E-12
  0.638000011      -1.41161171E-12
  0.638999999       3.45898440E-14
  0.639999986       1.52454893E-12
  0.640999973       3.02419179E-12
  0.642000020       4.49934577E-12
  0.643000007       5.91659968E-12
  0.643999994       7.24411546E-12
  0.644999981       8.45236554E-12
  0.646000028       9.51477872E-12
  0.647000015       1.04082775E-11
  0.648000002       1.11136976E-11
  0.648999989       1.16160822E-11
  0.649999976       1.19048495E-11
  0.651000023       1.19738377E-11
  0.652000010       1.18212367E-11
  0.652999997       1.14494126E-11
  0.653999984       1.08646451E-11
  0.654999971       1.00767953E-11
  0.656000018       9.09891520E-12
  0.657000005       7.94682722E-12
  0.657999992       6.63869047E-12
  0.658999979       5.19456483E-12
  0.660000026       3.63599862E-12
  0.661000013       1.98564906E-12
  0.662000000       2.66943748E-13
  0.662999988      -1.49620691E-12
  0.663999975      -3.27964652E-12
  0.665000021      -5.05915795E-12
  0.666000009      -6.81060286E-12
  0.666999996      -8.51002428E-12
  0.667999983      -1.01337246E-11
  0.669000030      -1.16583271E-11
  0.670000017      -1.30608441E-11
  0.671000004      -1.43187615E-11
  0.671999991      -1.54101558E-11
  0.672999978      -1.63138513E-11
  0.674000025      -1.70096420E-11
  0.675000012      -1.74785707E-11
  0.675999999      -1.77032763E-11
  0.676999986      -1.76684101E-11
  0.677999973      -1.73611091E-11
  0.679000020      -1.67715182E-11
  0.680000007      -1.58933474E-11
  0.680999994      -1.47244422E-11
  0.681999981      -1.32673438E-11
  0.683000028      -1.15298066E-11
  0.684000015      -9.52525125E-12
  0.685000002      -7.27312308E-12
  0.685999990      -4.79912030E-12
  0.686999977      -2.13526462E-12
  0.688000023       6.80200254E-13
  0.689000010       3.60311260E-12
  0.689999998       6.58390963E-12
  0.690999985       9.56835999E-12
  0.691999972       1.24985135E-11
  0.693000019       1.53138596E-11
  0.694000006       1.79526706E-11
  0.694999993       2.03535071E-11
  0.695999980       2.24568454E-11
  0.697000027       2.42067876E-11
  0.698000014       2.55527960E-11
  0.699000001       2.64514001E-11
  0.699999988       2.68678222E-11
  0.700999975       2.67774500E-11
  0.702000022       2.61671067E-11
  0.703000009       2.50360566E-11
  0.703999996       2.33966891E-11
  0.704999983       2.12748465E-11
  0.705999970       1.87097577E-11
  0.707000017       1.57535512E-11
  0.708000004       1.24703381E-11
  0.708999991       8.93487281E-12
  0.709999979       5.23080928E-12
  0.711000025       1.44857737E-12
  0.712000012      -2.31705822E-12
  0.713000000      -5.96970130E-12
  0.713999987      -9.41421593E-12
  0.714999974      -1.25597180E-11
  0.716000021      -1.53225696E-11
  0.717000008      -1.76292852E-11
  0.717999995      -1.94192388E-11
  0.718999982      -2.06470778E-11
  0.720000029      -2.12847483E-11
  0.721000016      -2.13230354E-11
  0.722000003      -2.07725503E-11
  0.722999990      -1.96640985E-11
  0.723999977      -1.80483892E-11
  0.725000024      -1.59950646E-11
  0.726000011      -1.35910293E-11
  0.726999998      -1.09381237E-11
  0.727999985      -8.15017932E-12
  0.728999972      -5.34951293E-12
  0.730000019      -2.66296056E-12
  0.731000006      -2.17559044E-13
  0.731999993       1.86399811E-12
  0.732999980       3.46799217E-12
  0.734000027       4.49424222E-12
  0.735000014       4.86044711E-12
  0.736000001       4.50614546E-12
  0.736999989       3.39614426E-12
  0.737999976       1.52327174E-12
  0.739000022      -1.08966991E-12
  0.740000010      -4.38886254E-12
  0.740999997      -8.28942210E-12
  0.741999984      -1.26763938E-11
  0.742999971      -1.74068173E-11
  0.744000018      -2.23128530E-11
  0.745000005      -2.72059146E-11
  0.745999992      -3.18817334E-11
  0.746999979      -3.61262478E-11
  0.748000026      -3.97221561E-11
  0.749000013      -4.24559554E-11
  0.750000000      -4.41252972E-11
  0.750999987      -4.45463978E-11
  0.751999974      -4.35612969E-11
  0.753000021      -4.10447301E-11
  0.754000008      -3.69103532E-11
  0.754999995      -3.11161201E-11
  0.755999982      -2.36685792E-11
  0.757000029      -1.46259185E-11
  0.758000016      -4.09957918E-12
  0.759000003       7.74566782E-12
  0.759999990       2.06932648E-11
  0.760999978       3.44780662E-11
  0.762000024       4.87911725E-11
  0.763000011       6.32863414E-11
  0.763999999       7.75878320E-11
  0.764999986       9.12995582E-11
  0.765999973       1.04015303E-10
  0.767000020       1.15329739E-10
  0.768000007       1.24849978E-10
  0.768999994       1.32207315E-10
  0.769999981       1.37068870E-10
  0.771000028       1.39148748E-10
  0.772000015       1.38218298E-10
  0.773000002       1.34115288E-10
  0.773999989       1.26751581E-10
  0.774999976       1.16119010E-10
  0.776000023       1.02293306E-10
  0.777000010       8.54357834E-11
  0.777999997       6.57927046E-11
  0.778999984       4.36922477E-11
  0.779999971       1.95390856E-11
  0.781000018      -6.19336873E-12
  0.782000005      -3.29729369E-11
  0.782999992      -6.02206132E-11
  0.783999979      -8.73242034E-11
  0.785000026      -1.13653337E-10
  0.786000013      -1.38575498E-10
  0.787000000      -1.61472585E-10
  0.787999988      -1.81757595E-10
  0.788999975      -1.98890973E-10
  0.790000021      -2.12396059E-10
  0.791000009      -2.21873298E-10
  0.791999996      -2.27012673E-10
  0.792999983      -2.27603977E-10
  0.794000030      -2.23544613E-10
  0.795000017      -2.14844642E-10
  0.796000004      -2.01628783E-10
  0.796999991      -1.84135290E-10
  0.797999978      -1.62711705E-10
  0.799000025      -1.37807460E-10
  0.800000012      -1.09963531E-10
  0.800999999      -7.97993130E-11
  0.801999986      -4.79970924E-11
  0.802999973      -1.52845132E-11
  0.804000020       1.75845206E-11
  0.805000007       4.98499853E-11
  0.805999994       8.07663450E-11
  0.806999981       1.09623019E-10
  0.808000028       1.35764122E-10
  0.809000015       1.58606905E-10
  0.810000002       1.77658305E-10
  0.810999990       1.92529090E-10
  0.811999977       2.02945147E-10
  0.813000023       2.08755541E-10
  0.814000010       2.09937026E-10
  0.814999998       2.06594852E-10
  0.815999985       1.98959793E-10
  0.816999972       1.87381347E-10
  0.818000019       1.72317341E-10
  0.819000006       1.54320196E-10
  0.819999993       1.34020184E-10
  0.820999980       1.12106130E-10
  0.822000027       8.93041335E-11
  0.823000014       6.63549771E-11
  0.824000001       4.39908179E-11
  0.824999988       2.29118703E-11
  0.825999975       3.76386942E-12
  0.827000022      -1.28830063E-11
  0.828000009      -2.65531191E-11
  0.828999996      -3.68815742E-11
  0.829999983      -4.36271297E-11
  0.830999970      -4.66813393E-11
  0.832000017      -4.60735651E-11
  0.833000004      -4.19716484E-11
  0.833999991      -3.46781354E-11
  0.834999979      -2.46220891E-11
  0.836000025      -1.23466549E-11
  0.837000012       1.50731727E-12
  0.838000000       1.62211251E-11
  0.838999987       3.10210399E-11
  0.839999974       4.51034106E-11
  0.841000021       5.76613202E-11
  0.842000008       6.79120232E-11
  0.842999995       7.51242818E-11
  0.843999982       7.86447713E-11
  0.845000029       7.79227030E-11
  0.846000016       7.25318972E-11
  0.847000003       6.21895174E-11
  0.847999990       4.67708441E-11
  0.848999977       2.63195386E-11
  0.850000024       1.05298409E-12
  0.851000011      -2.86375802E-11
  0.851999998      -6.21922444E-11
  0.852999985      -9.88929078E-11
  0.853999972      -1.37878833E-10
  0.855000019      -1.78166967E-10
  0.856000006      -2.18676452E-10