   0.00000000       0.00000000    
   1.00000005E-03   0.00000000    
   2.00000009E-03   0.00000000    
   3.00000003E-03   0.00000000    
   4.00000019E-03   0.00000000    
   4.99999989E-03   0.00000000    
   6.00000005E-03   0.00000000    
   7.00000022E-03   0.00000000    
   8.00000038E-03   0.00000000    
   8.99999961E-03   0.00000000    
   9.99999978E-03   0.00000000    
   1.09999999E-02   0.00000000    
   1.20000001E-02   0.00000000    
   1.30000003E-02   0.00000000    
   1.40000004E-02   0.00000000    
   1.49999997E-02   0.00000000    
   1.60000008E-02   0.00000000    
   1.70000009E-02   0.00000000    
   1.79999992E-02   0.00000000    
   1.89999994E-02   5.19330067E-38
   1.99999996E-02   1.83942396E-37
   2.09999997E-02   4.83465548E-37
   2.19999999E-02   1.10267499E-36
   2.30000000E-02   2.26338714E-36
   2.40000002E-02   4.21136420E-36
   2.50000004E-02   6.99431264E-36
   2.60000005E-02   9.83117856E-36
   2.70000007E-02   9.62768401E-36
   2.80000009E-02  -2.16787626E-36
   2.89999992E-02  -4.57150384E-35
   2.99999993E-02  -1.64088783E-34
   3.09999995E-02  -4.42994551E-34
   3.20000015E-02  -1.04355889E-33
   3.29999998E-02  -2.25454196E-33
   3.40000018E-02  -4.57208638E-33
   3.50000001E-02  -8.81661758E-33
   3.59999985E-02  -1.62971536E-32
   3.70000005E-02  -2.90320744E-32
   3.79999988E-02  -5.00310732E-32
   3.90000008E-02  -8.36338076E-32
   3.99999991E-02  -1.35884255E-31
   4.10000011E-02  -2.14893909E-31
   4.19999994E-02  -3.31108617E-31
   4.30000015E-02  -4.97341268E-31
   4.39999998E-02  -7.28363759E-31
   4.50000018E-02  -1.03976820E-30
   4.60000001E-02  -1.44571032E-30
   4.69999984E-02  -1.95504873E-30
   4.80000004E-02  -2.56529674E-30
   4.89999987E-02  -3.25374203E-30
   5.00000007E-02  -3.96507485E-30
   5.09999990E-02  -4.59494234E-30
   5.20000011E-02  -4.96906740E-30
   5.29999994E-02  -4.81795901E-30
   5.40000014E-02  -3.74789315E-30
   5.49999997E-02  -1.20977280E-30
   5.60000017E-02   3.53124935E-30
   5.70000000E-02   1.14208526E-29
   5.79999983E-02   2.36288072E-29
   5.90000004E-02   4.15415656E-29
   5.99999987E-02   6.67228318E-29
   6.10000007E-02   1.00828277E-28
   6.19999990E-02   1.45458351E-28
   6.30000010E-02   2.01931636E-28
   6.40000030E-02   2.70960986E-28
   6.49999976E-02   3.52215970E-28
   6.59999996E-02   4.43759970E-28
   6.70000017E-02   5.41356615E-28
   6.80000037E-02   6.37652823E-28
   6.89999983E-02   7.21261342E-28
   7.00000003E-02   7.75787645E-28
   7.10000023E-02   7.78872744E-28
   7.19999969E-02   7.01355460E-28
   7.29999989E-02   5.06694883E-28
   7.40000010E-02   1.50830889E-28
   7.50000030E-02  -4.17298511E-28
   7.59999976E-02  -1.25433169E-27
   7.69999996E-02  -2.41987012E-27
   7.80000016E-02  -3.97238882E-27
   7.90000036E-02  -5.96338785E-27
   7.99999982E-02  -8.42954885E-27
   8.10000002E-02  -1.13827267E-26
   8.20000023E-02  -1.47977394E-26
   8.29999968E-02  -1.85980784E-26
   8.39999989E-02  -2.26399105E-26
   8.50000009E-02  -2.66950068E-26
   8.60000029E-02  -3.04335974E-26
   8.69999975E-02  -3.34085213E-26
   8.79999995E-02  -3.50424864E-26
   8.90000015E-02  -3.46206553E-26
   9.00000036E-02  -3.12912093E-26
   9.09999982E-02  -2.40768776E-26
   9.20000002E-02  -1.19006585E-26
   9.30000022E-02   6.37100322E-27
   9.39999968E-02   3.18644246E-26
   9.49999988E-02   6.56116261E-26
   9.60000008E-02   1.08438176E-25
   9.70000029E-02   1.60825307E-25
   9.79999974E-02   2.22747350E-25
   9.89999995E-02   2.93487811E-25
  0.100000001       3.71439940E-25
  0.101000004       4.53900704E-25
  0.101999998       5.36870777E-25
  0.103000000       6.14876203E-25
  0.104000002       6.80831680E-25
  0.104999997       7.25968279E-25
  0.105999999       7.39851886E-25
  0.107000001       7.10519572E-25
  0.108000003       6.24762257E-25
  0.108999997       4.68581751E-25
  0.109999999       2.27844797E-25
  0.111000001      -1.10847357E-25
  0.112000003      -5.59064688E-25
  0.112999998      -1.12523277E-24
  0.114000000      -1.81311435E-24
  0.115000002      -2.62012379E-24
  0.115999997      -3.53553298E-24
  0.116999999      -4.53865008E-24
  0.118000001      -5.59707817E-24
  0.119000003      -6.66518045E-24
  0.119999997      -7.68291120E-24
  0.120999999      -8.57518467E-24
  0.122000001      -9.25196501E-24
  0.123000003      -9.60928035E-24
  0.123999998      -9.53134247E-24
  0.125000000      -8.89395232E-24
  0.126000002      -7.56933022E-24
  0.127000004      -5.43246617E-24
  0.128000006      -2.36901832E-24
  0.128999993       1.71529481E-24
  0.129999995       6.88397102E-24
  0.130999997       1.31579364E-23
  0.131999999       2.05031071E-23
  0.133000001       2.88178367E-23
  0.134000003       3.79209413E-23
  0.135000005       4.75411032E-23
  0.136000007       5.73085928E-23
  0.136999995       6.67503616E-23
  0.137999997       7.52895159E-23
  0.138999999       8.22503551E-23
  0.140000001       8.68699056E-23
  0.141000003       8.83169100E-23
  0.142000005       8.57189765E-23
  0.143000007       7.81982922E-23
  0.143999994       6.49159066E-23
  0.144999996       4.51241975E-23
  0.145999998       1.82265728E-23
  0.147000000      -1.61572029E-23
  0.148000002      -5.81222050E-23
  0.149000004      -1.07409004E-22
  0.150000006      -1.63337172E-22
  0.150999993      -2.24745866E-22
  0.151999995      -2.89945914E-22
  0.152999997      -3.56688545E-22
  0.153999999      -4.22155695E-22
  0.155000001      -4.82976694E-22
  0.156000003      -5.35276380E-22
  0.157000005      -5.74758250E-22
  0.158000007      -5.96825504E-22
  0.158999994      -5.96741392E-22
  0.159999996      -5.69829194E-22
  0.160999998      -5.11708498E-22
  0.162000000      -4.18563967E-22
  0.163000003      -2.87438725E-22
  0.164000005      -1.16543129E-22
  0.165000007       9.44341856E-23
  0.165999994       3.44027567E-22
  0.166999996       6.28725322E-22
  0.167999998       9.42748811E-22
  0.169000000       1.27789964E-21
  0.170000002       1.62349523E-21
  0.171000004       1.96641107E-21
  0.172000006       2.29124688E-21
  0.172999993       2.58063165E-21
  0.173999995       2.81567454E-21
  0.174999997       2.97656763E-21
  0.175999999       3.04333621E-21
  0.177000001       2.99672430E-21
  0.178000003       2.81919692E-21
  0.179000005       2.49602881E-21
  0.180000007       2.01644076E-21
  0.180999994       1.37473773E-21
  0.181999996       5.71389952E-22
  0.182999998      -3.85999991E-22
  0.184000000      -1.48191487E-21
  0.185000002      -2.69238969E-21
  0.186000004      -3.98479558E-21
  0.187000006      -5.31800030E-21
  0.187999994      -6.64295825E-21
  0.188999996      -7.90376811E-21
  0.189999998      -9.03921486E-21
  0.191000000      -9.98480105E-21
  0.192000002      -1.06752408E-20
  0.193000004      -1.10473565E-20
  0.194000006      -1.10433071E-20
  0.194999993      -1.06140238E-20
  0.195999995      -9.72272616E-21
  0.196999997      -8.34834133E-21
  0.197999999      -6.48864827E-21
  0.199000001      -4.16293749E-21
  0.200000003      -1.41398710E-21
  0.201000005       1.69085704E-21
  0.202000007       5.05968165E-21
  0.202999994       8.57725388E-21
  0.203999996       1.21076325E-20
  0.204999998       1.54982272E-20
  0.206000000       1.85852943E-20
  0.207000002       2.12008136E-20
  0.208000004       2.31805831E-20
  0.209000006       2.43733033E-20
  0.209999993       2.46503070E-20
  0.210999995       2.39155105E-20
  0.211999997       2.21151180E-20
  0.213000000       1.92464734E-20
  0.214000002       1.53654825E-20
  0.215000004       1.05919645E-20
  0.216000006       5.11229688E-21
  0.216999993      -8.21203344E-22
  0.217999995      -6.89468208E-21
  0.218999997      -1.27413045E-20
  0.219999999      -1.79541911E-20
  0.221000001      -2.21037555E-20
  0.222000003      -2.47592444E-20
  0.223000005      -2.55140160E-20
  0.224000007      -2.40138060E-20
  0.224999994      -1.99869923E-20
  0.225999996      -1.32755291E-20
  0.226999998      -3.86502807E-21
  0.228000000       8.08779156E-21
  0.229000002       2.22322093E-20
  0.230000004       3.80071655E-20
  0.231000006       5.46335088E-20
  0.231999993       7.11167368E-20
  0.232999995       8.62618969E-20
  0.233999997       9.87020341E-20
  0.234999999       1.06941096E-19
  0.236000001       1.09411516E-19
  0.237000003       1.04546246E-19
  0.238000005       9.08639291E-20
  0.238999993       6.70652837E-20
  0.239999995       3.21377246E-20
  0.240999997      -1.45355166E-20
  0.241999999      -7.30665308E-20
  0.243000001      -1.42959480E-19
  0.244000003      -2.23019086E-19
  0.245000005      -3.11277267E-19
  0.246000007      -4.04944692E-19
  0.246999994      -5.00393761E-19
  0.247999996      -5.93179334E-19
  0.248999998      -6.78102142E-19
  0.250000000      -7.49319549E-19
  0.250999987      -8.00506468E-19
  0.252000004      -8.25066339E-19
  0.252999991      -8.16391541E-19
  0.254000008      -7.68168927E-19
  0.254999995      -6.74723833E-19
  0.256000012      -5.31392871E-19
  0.256999999      -3.34913488E-19
  0.257999986      -8.38150708E-20
  0.259000003       2.21205673E-19
  0.259999990       5.76944519E-19
  0.261000007       9.77405297E-19
  0.261999995       1.41359263E-18
  0.263000011       1.87340279E-18
  0.263999999       2.34163396E-18
  0.264999986       2.80013086E-18
  0.266000003       3.22808206E-18
  0.266999990       3.60247579E-18
  0.268000007       3.89872226E-18
  0.268999994       4.09143797E-18
  0.270000011       4.15538399E-18
  0.270999998       4.06654066E-18
  0.272000015       3.80329167E-18
  0.273000002       3.34768617E-18
  0.273999989       2.68673516E-18
  0.275000006       1.81369131E-18
  0.275999993       7.29260264E-19
  0.277000010      -5.57321313E-19
  0.277999997      -2.02739942E-18
  0.279000014      -3.65227661E-18
  0.280000001      -5.39290368E-18
  0.280999988      -7.19994880E-18
  0.282000005      -9.01429089E-18
  0.282999992      -1.07679742E-17
  0.284000009      -1.23856483E-17
  0.284999996      -1.37865026E-17
  0.286000013      -1.48866801E-17
  0.287000000      -1.56021335E-17
  0.287999988      -1.58518676E-17
  0.289000005      -1.55615040E-17
  0.289999992      -1.46670356E-17
  0.291000009      -1.31186767E-17
  0.291999996      -1.08846513E-17
  0.293000013      -7.95476269E-18
  0.294000000      -4.34357999E-18
  0.294999987      -9.30647982E-20
  0.296000004       4.72553105E-18
  0.296999991       1.00106655E-17
  0.298000008       1.56305537E-17
  0.298999995       2.14243782E-17
  0.300000012       2.72047742E-17
  0.300999999       3.27616164E-17
  0.301999986       3.78671538E-17
  0.303000003       4.22824090E-17
  0.303999990       4.57647832E-17
  0.305000007       4.80766835E-17
  0.305999994       4.89949731E-17
  0.307000011       4.83209731E-17
  0.307999998       4.58906834E-17
  0.308999985       4.15848807E-17
  0.310000002       3.53386579E-17
  0.310999990       2.71500099E-17
  0.312000006       1.70870137E-17
  0.312999994       5.29316183E-18
  0.314000010      -8.00951046E-18
  0.314999998      -2.25199227E-17
  0.316000015      -3.78603346E-17
  0.317000002      -5.35818583E-17
  0.317999989      -6.91732103E-17
  0.319000006      -8.40727250E-17
  0.319999993      -9.76835320E-17
  0.321000010      -1.09391625E-16
  0.321999997      -1.18586466E-16
  0.323000014      -1.24683634E-16
  0.324000001      -1.27148804E-16
  0.324999988      -1.25522382E-16
  0.326000005      -1.19443848E-16
  0.326999992      -1.08674989E-16
  0.328000009      -9.31208567E-17
  0.328999996      -7.28476393E-17
  0.330000013      -4.80963075E-17
  0.331000000      -1.92912349E-17
  0.331999987       1.29571308E-17
  0.333000004       4.78561373E-17
  0.333999991       8.44419057E-17
  0.335000008       1.21597588E-16
  0.335999995       1.58079112E-16
  0.337000012       1.92547913E-16
  0.338000000       2.23610319E-16
  0.338999987       2.49862702E-16
  0.340000004       2.69941168E-16
  0.340999991       2.82574426E-16
  0.342000008       2.86638358E-16
  0.342999995       2.81210068E-16
  0.344000012       2.65619580E-16
  0.344999999       2.39497189E-16
  0.345999986       2.02814045E-16
  0.347000003       1.55914016E-16
  0.347999990       9.95348549E-17
  0.349000007       3.48169783E-17
  0.349999994      -3.67016531E-17
  0.351000011      -1.13105580E-16
  0.351999998      -1.92137288E-16
  0.352999985      -2.71248299E-16
  0.354000002      -3.47665097E-16
  0.354999989      -4.18469110E-16
  0.356000006      -4.80688868E-16
  0.356999993      -5.31401790E-16
  0.358000010      -5.67843159E-16
  0.358999997      -5.87518675E-16
  0.360000014      -5.88316474E-16
  0.361000001      -5.68615335E-16
  0.361999989      -5.27383836E-16
  0.363000005      -4.64266699E-16
  0.363999993      -3.79654037E-16
  0.365000010      -2.74729525E-16
  0.365999997      -1.51493868E-16
  0.367000014      -1.27611047E-17
  0.368000001       1.37874756E-16
  0.368999988       2.96103713E-16
  0.370000005       4.56994498E-16
  0.370999992       6.15119244E-16
  0.372000009       7.64705686E-16
  0.372999996       8.99814005E-16
  0.374000013       1.01453371E-15
  0.375000000       1.10319445E-15
  0.375999987       1.16058549E-15
  0.377000004       1.18217583E-15
  0.377999991       1.16432672E-15
  0.379000008       1.10448999E-15
  0.379999995       1.00138194E-15
  0.381000012       8.55126665E-16
  0.381999999       6.67359789E-16
  0.382999986       4.41287331E-16
  0.384000003       1.81693385E-16
  0.384999990      -1.05107074E-16
  0.386000007      -4.11372774E-16
  0.386999995      -7.28098245E-16
  0.388000011      -1.04523241E-15
  0.388999999      -1.35194960E-15
  0.389999986      -1.63696709E-15
  0.391000003      -1.88890190E-15
  0.391999990      -2.09665600E-15
  0.393000007      -2.24981967E-15
  0.393999994      -2.33907915E-15
  0.395000011      -2.35661485E-15
  0.395999998      -2.29647509E-15
  0.397000015      -2.15491280E-15
  0.398000002      -1.93066655E-15
  0.398999989      -1.62517798E-15
  0.400000006      -1.24272841E-15
  0.400999993      -7.90488575E-16
  0.402000010      -2.78471505E-16
  0.402999997       2.80614445E-16
  0.404000014       8.71614902E-16
  0.405000001       1.47727851E-15
  0.405999988       2.07870038E-15
  0.407000005       2.65585000E-15
  0.407999992       3.18817145E-15
  0.409000009       3.65523897E-15
  0.409999996       4.03744904E-15
  0.411000013       4.31672893E-15
  0.412000000       4.47723405E-15
  0.412999988       4.50601623E-15
  0.414000005       4.39363105E-15
  0.414999992       4.13466682E-15
  0.416000009       3.72816597E-15
  0.416999996       3.17792405E-15
  0.418000013       2.49264475E-15
  0.419000000       1.68593978E-15
  0.419999987       7.76165353E-16
  0.421000004      -2.13910971E-16
  0.421999991      -1.25760803E-15
  0.423000008      -2.32498791E-15
  0.423999995      -3.38365691E-15
  0.425000012      -4.39969199E-15
  0.425999999      -5.33866825E-15
  0.426999986      -6.16675561E-15
  0.428000003      -6.85185703E-15
  0.428999990      -7.36474649E-15
  0.430000007      -7.68016886E-15
  0.430999994      -7.77786818E-15
  0.432000011      -7.64349996E-15
  0.432999998      -7.26939430E-15
  0.433999985      -6.65513744E-15
  0.435000002      -5.80794059E-15
  0.435999990      -4.74277761E-15
  0.437000006      -3.48227463E-15
  0.437999994      -2.05633871E-15
  0.439000010      -5.01535620E-16
  0.439999998       1.13978310E-15
  0.441000015       2.82058117E-15
  0.442000002       4.49044141E-15
  0.442999989       6.09703929E-15
  0.444000006       7.58774232E-15
  0.444999993       8.91128974E-15
  0.446000010       1.00195011E-14
  0.446999997       1.08689540E-14
  0.448000014       1.14225832E-14
  0.449000001       1.16511330E-14
  0.449999988       1.15344203E-14
  0.451000005       1.10623519E-14
  0.451999992       1.02356571E-14
  0.453000009       9.06629931E-15
  0.453999996       7.57754065E-15
  0.455000013       5.80364063E-15
  0.456000000       3.78919215E-15
  0.456999987       1.58810027E-15
  0.458000004      -7.37783167E-16
  0.458999991      -3.12032581E-15
  0.460000008      -5.48704513E-15
  0.460999995      -7.76324839E-15
  0.462000012      -9.87432216E-15
  0.463000000      -1.17480980E-14
  0.463999987      -1.33172273E-14
  0.465000004      -1.45214786E-14
  0.465999991      -1.53099003E-14
  0.467000008      -1.56427470E-14
  0.467999995      -1.54931271E-14
  0.469000012      -1.48483046E-14
  0.469999999      -1.37105835E-14
  0.470999986      -1.20977642E-14
  0.472000003      -1.00431189E-14
  0.472999990      -7.59489043E-15
  0.474000007      -4.81530819E-15
  0.474999994      -1.77913934E-15
  0.476000011       1.42819136E-15
  0.476999998       4.71286718E-15
  0.477999985       7.97527006E-15
  0.479000002       1.11128232E-14
  0.479999989       1.40230125E-14
  0.481000006       1.66064875E-14
  0.481999993       1.87701586E-14
  0.483000010       2.04301924E-14
  0.483999997       2.15148198E-14
  0.485000014       2.19668610E-14
  0.486000001       2.17458785E-14
  0.486999989       2.08299124E-14
  0.488000005       1.92167178E-14
  0.488999993       1.69244586E-14
  0.490000010       1.39918323E-14
  0.490999997       1.04776171E-14
  0.492000014       6.45963546E-15
  0.493000001       2.03315012E-15
  0.493999988      -2.69125894E-15
  0.495000005      -7.59029866E-15
  0.495999992      -1.25309783E-14
  0.497000009      -1.73739553E-14
  0.497999996      -2.19771406E-14
  0.499000013      -2.61994456E-14
  0.500000000      -2.99046066E-14
  0.500999987      -3.29649604E-14
  0.501999974      -3.52650648E-14
  0.503000021      -3.67051191E-14
  0.504000008      -3.72040486E-14
  0.504999995      -3.67021578E-14
  0.505999982      -3.51633599E-14
  0.507000029      -3.25768431E-14
  0.508000016      -2.89581591E-14
  0.509000003      -2.43497137E-14
  0.509999990      -1.88206198E-14
  0.510999978      -1.24659236E-14
  0.512000024      -5.40519930E-15
  0.513000011       2.21945079E-15
  0.513999999       1.02459629E-14
  0.514999986       1.84953981E-14
  0.515999973       2.67754907E-14
  0.517000020       3.48845911E-14
  0.518000007       4.26159454E-14
  0.518999994       4.97622065E-14
  0.519999981       5.61201035E-14
  0.521000028       6.14952086E-14
  0.522000015       6.57066700E-14
  0.523000002       6.85918472E-14
  0.523999989       7.00107222E-14
  0.524999976       6.98500773E-14
  0.526000023       6.80272285E-14
  0.527000010       6.44933258E-14
  0.527999997       5.92360972E-14
  0.528999984       5.22819804E-14
  0.529999971       4.36974946E-14
  0.531000018       3.35898911E-14
  0.532000005       2.21069568E-14
  0.532999992       9.43593602E-15
  0.533999979      -4.19845518E-15
  0.535000026      -1.85369484E-14
  0.536000013      -3.32895807E-14
  0.537000000      -4.81404772E-14
  0.537999988      -6.27534998E-14
  0.538999975      -7.67787323E-14
  0.540000021      -8.98597332E-14
  0.541000009      -1.01641372E-13
  0.541999996      -1.11778229E-13
  0.542999983      -1.19943281E-13
  0.544000030      -1.25836800E-13
  0.545000017      -1.29195157E-13
  0.546000004      -1.29799424E-13
  0.546999991      -1.27483473E-13
  0.547999978      -1.22141270E-13
  0.549000025      -1.13733269E-13
  0.550000012      -1.02291500E-13
  0.550999999      -8.79232735E-14
  0.551999986      -7.08131402E-14
  0.552999973      -5.12230537E-14
  0.554000020      -2.94904719E-14
  0.555000007      -6.02439605E-15
  0.555999994       1.87007460E-14
  0.556999981       4.41533881E-14
  0.558000028       6.97551622E-14
  0.559000015       9.48932095E-14
  0.560000002       1.18934173E-13
  0.560999990       1.41239722E-13
  0.561999977       1.61183092E-13
  0.563000023       1.78166455E-13
  0.564000010       1.91638480E-13
  0.564999998       2.01111724E-13
  0.565999985       2.06179298E-13
  0.566999972       2.06530160E-13
  0.568000019       2.01962755E-13
  0.569000006       1.92396175E-13
  0.569999993       1.77878654E-13
  0.570999980       1.58592743E-13
  0.572000027       1.34856969E-13
  0.573000014       1.07123620E-13
  0.574000001       7.59725128E-14
  0.574999988       4.21007596E-14
  0.575999975       6.30848667E-15
  0.577000022      -3.05191663E-14
  0.578000009      -6.74335262E-14
  0.578999996      -1.03446819E-13
  0.579999983      -1.37559018E-13
  0.580999970      -1.68786344E-13
  0.582000017      -1.96190801E-13
  0.583000004      -2.18909634E-13
  0.583999991      -2.36183984E-13
  0.584999979      -2.47385852E-13
  0.586000025      -2.52042175E-13
  0.587000012      -2.49855502E-13
  0.588000000      -2.40720096E-13
  0.588999987      -2.24733006E-13
  0.589999974      -2.02199301E-13
  0.591000021      -1.73631292E-13
  0.592000008      -1.39741097E-13
  0.592999995      -1.01426849E-13
  0.593999982      -5.97524146E-14
  0.595000029      -1.59210956E-14
  0.596000016       2.87561451E-14
  0.597000003       7.28972479E-14
  0.597999990       1.15089429E-13
  0.598999977       1.53932206E-13
  0.600000024       1.88081931E-13
  0.601000011       2.16296382E-13
  0.601999998       2.37478114E-13
  0.602999985       2.50715030E-13
  0.603999972       2.55316764E-13
  0.605000019       2.50845622E-13
  0.606000006       2.37140928E-13
  0.606999993       2.14335358E-13
  0.607999980       1.82862894E-13
  0.609000027       1.43457471E-13
  0.610000014       9.71420549E-14
  0.611000001       4.52081406E-14
  0.611999989      -1.08141357E-14
  0.612999976      -6.91946365E-14
  0.614000022      -1.28049806E-13
  0.615000010      -1.85395956E-13
  0.615999997      -2.39207986E-13
  0.616999984      -2.87481763E-13
  0.617999971      -3.28298207E-13
  0.619000018      -3.59887657E-13
  0.620000005      -3.80691789E-13
  0.620999992      -3.89421649E-13
  0.621999979      -3.85109398E-13
  0.623000026      -3.67152299E-13
  0.624000013      -3.35347012E-13
  0.625000000      -2.89912761E-13
  0.625999987      -2.31502507E-13
  0.626999974      -1.61201158E-13
  0.628000021      -8.05103529E-14
  0.629000008       8.67991761E-15
  0.629999995       1.04132706E-13
  0.630999982       2.03317506E-13
  0.632000029       3.03474504E-13
  0.633000016       4.01687960E-13
  0.634000003       4.94966969E-13
  0.634999990       5.80331193E-13
  0.635999978       6.54899149E-13
  0.637000024       7.15976486E-13
  0.638000011       7.61141638E-13
  0.638999999       7.88326164E-13
  0.639999986       7.95887065E-13
  0.640999973       7.82668743E-13
  0.642000020       7.48052933E-13
  0.643000007       6.91993880E-13
  0.643999994       6.15038131E-13
  0.644999981       5.18327568E-13
  0.646000028       4.03585368E-13
  0.647000015       2.73084886E-13
  0.648000002       1.29601760E-13
  0.648999989      -2.36494682E-14
  0.649999976      -1.83092826E-13
  0.651000023      -3.44880428E-13
  0.652000010      -5.04991719E-13
  0.652999997      -6.59339662E-13
  0.653999984      -8.03881104E-13
  0.654999971      -9.34727989E-13
  0.656000018      -1.04825632E-12
  0.657000005      -1.14120931E-12
  0.657999992      -1.21079264E-12
  0.658999979      -1.25475780E-12
  0.660000026      -1.27147132E-12
  0.661000013      -1.25996869E-12
  0.662000000      -1.21998928E-12
  0.662999988      -1.15199321E-12
  0.663999975      -1.05715740E-12
  0.665000021      -9.37352843E-13
  0.666000009      -7.95101669E-13
  0.666999996      -6.33516080E-13
  0.667999983      -4.56220402E-13
  0.669000030      -2.67258844E-13
  0.670000017      -7.09908071E-14
  0.671000004       1.28023067E-13
  0.671999991       3.25140712E-13
  0.672999978       5.15761370E-13
  0.674000025       6.95447280E-13
  0.675000012       8.60041313E-13
  0.675999999       1.00577706E-12
  0.676999986       1.12937795E-12
  0.677999973       1.22814345E-12
  0.679000020       1.30001836E-12
  0.680000007       1.34364525E-12
  0.680999994       1.35839658E-12
  0.681999981       1.34438728E-12
  0.683000028       1.30246595E-12
  0.684000015       1.23418647E-12
  0.685000002       1.14175965E-12
  0.685999990       1.02798727E-12
  0.686999977       8.96179181E-13
  0.688000023       7.50057460E-13
  0.689000010       5.93649262E-13
  0.689999998       4.31171863E-13
  0.690999985       2.66912767E-13
  0.691999972       1.05109043E-13
  0.693000019      -5.01713403E-14
  0.694000006      -1.95142595E-13
  0.694999993      -3.26405380E-13
  0.695999980      -4.41039376E-13
  0.697000027      -5.36681647E-13
  0.698000014      -6.11588579E-13
  0.699000001      -6.64679520E-13
  0.699999988      -6.95561393E-13
  0.700999975      -7.04532840E-13
  0.702000022      -6.92568886E-13
  0.703000009      -6.61285805E-13
  0.703999996      -6.12887182E-13
  0.704999983      -5.50093283E-13
  0.705999970      -4.76055339E-13
  0.707000017      -3.94256947E-13
  0.708000004      -3.08405970E-13
  0.708999991      -2.22319328E-13
  0.709999979      -1.39804062E-13
  0.711000025      -6.45382592E-14
  0.712000012       4.52972044E-17
  0.713000000       5.08691837E-14
  0.713999987       8.53121623E-14
  0.714999974       1.01297903E-13
  0.716000021       9.73690733E-14
  0.717000008       7.27446057E-14
  0.717999995       2.73585035E-14
  0.718999982      -3.81211887E-14
  0.720000029      -1.22293966E-13
  0.721000016      -2.23049118E-13
  0.722000003      -3.37608603E-13
  0.722999990      -4.62589331E-13
  0.723999977      -5.94084135E-13
  0.725000024      -7.27758674E-13
  0.726000011      -8.58963074E-13
  0.726999998      -9.82854965E-13
  0.727999985      -1.09453126E-12
  0.728999972      -1.18916498E-12
  0.730000019      -1.26214479E-12
  0.731000006      -1.30921229E-12
  0.731999993      -1.32659476E-12
  0.732999980      -1.31112905E-12
  0.734000027      -1.26037375E-12
  0.735000014      -1.17270635E-12
  0.736000001      -1.04740251E-12
  0.736999989      -8.84694661E-13
  0.737999976      -6.85808669E-13
  0.739000022      -4.52976361E-13
  0.740000010      -1.89423333E-13
  0.740999997       1.00669188E-13
  0.741999984       4.12227083E-13
  0.742999971       7.39371021E-13
  0.744000018       1.07552693E-12
  0.745000005       1.41355786E-12
  0.745999992       1.74591429E-12
  0.746999979       2.06479994E-12
  0.748000026       2.36234968E-12
  0.749000013       2.63081635E-12
  0.750000000       2.86275951E-12
  0.750999987       3.05123548E-12
  0.751999974       3.18998192E-12
  0.753000021       3.27359147E-12
  0.754000008       3.29767203E-12
  0.754999995       3.25898857E-12
  0.755999982       3.15558148E-12
  0.757000029       2.98685881E-12
  0.758000016       2.75365950E-12
  0.759000003       2.45828466E-12
  0.759999990       2.10449410E-12
  0.760999978       1.69746975E-12
  0.762000024       1.24374317E-12
  0.763000011       7.51088861E-13
  0.763999999       2.28385101E-13
  0.764999986      -3.14556053E-13
  0.765999973      -8.67185664E-13
  0.767000020      -1.41843839E-12
  0.768000007      -1.95697169E-12
  0.768999994      -2.47141782E-12
  0.769999981      -2.95064494E-12
  0.771000028      -3.38401789E-12
  0.772000015      -3.76165592E-12
  0.773000002      -4.07467679E-12
  0.773999989      -4.31542736E-12
  0.774999976      -4.47768688E-12
  0.776000023      -4.55684145E-12
  0.777000010      -4.55002746E-12
  0.777999997      -4.45623182E-12
  0.778999984      -4.27635444E-12
  0.779999971      -4.01322161E-12
  0.781000018      -3.67155611E-12
  0.782000005      -3.25790089E-12
  0.782999992      -2.78049545E-12
  0.783999979      -2.24910975E-12
  0.785000026      -1.67483627E-12
  0.786000013      -1.06984734E-12
  0.787000000      -4.47120233E-13
  0.787999988       1.79862269E-13
  0.788999975       7.97428801E-13
  0.790000021       1.39204707E-12
  0.791000009       1.95065340E-12
  0.791999996       2.46097673E-12
  0.792999983       2.91184720E-12
  0.794000030       3.29348419E-12
  0.795000017       3.59775100E-12
  0.796000004       3.81837530E-12
  0.796999991       3.95112545E-12
  0.797999978       3.99393496E-12
  0.799000025       3.94697729E-12
  0.800000012       3.81268237E-12
  0.800999999       3.59569731E-12
  0.801999986       3.30278643E-12
  0.802999973       2.94267822E-12
  0.804000020       2.52585669E-12
  0.805000007       2.06430511E-12
  0.805999994       1.57120475E-12
  0.806999981       1.06059920E-12
  0.808000028       5.47028351E-13
  0.809000015       4.51446470E-14
  0.810000002      -4.30681722E-13
  0.810999990      -8.66756428E-13
  0.811999977      -1.25044463E-12
  0.813000023      -1.57053287E-12
  0.814000010      -1.81756064E-12
  0.814999998      -1.98411123E-12
  0.815999985      -2.06505386E-12
  0.816999972      -2.05772899E-12
  0.818000019      -1.96207156E-12
  0.819000006      -1.78066665E-12
  0.819999993      -1.51873414E-12
  0.820999980      -1.18404234E-12
  0.822000027      -7.86749626E-13
  0.823000014      -3.39177715E-13
  0.824000001       1.44480185E-13
  0.824999988       6.48509837E-13
  0.825999975       1.15607730E-12
  0.827000022       1.64967226E-12
  0.828000009       2.11158218E-12
  0.828999996       2.52438608E-12
  0.829999983       2.87145524E-12
  0.830999970       3.13744755E-12
  0.832000017       3.30878250E-12
  0.833000004       3.37408422E-12
  0.833999991       3.32457716E-12
  0.834999979       3.15442724E-12
  0.836000025       2.86101264E-12
  0.837000012       2.44511876E-12
  0.838000000       1.91104684E-12
  0.838999987       1.26663350E-12
  0.839999974       5.23175090E-13
  0.841000021      -3.04742288E-13
  0.842000008      -1.19950707E-12
  0.842999995      -2.14083612E-12
  0.843999982      -3.10621190E-12
  0.845000029      -4.07139470E-12
  0.846000016      -5.01099813E-12
  0.847000003      -5.89911670E-12
  0.847999990      -6.70998760E-12
  0.848999977      -7.41867418E-12
  0.850000024      -8.00174857E-12
  0.851000011      -8.43796560E-12
  0.851999998      -8.70889558E-12
  0.852999985      -8.79951060E-12
  0.853999972      -8.69870061E-12
  0.855000019      -8.39970801E-12
  0.856000006      -7.90046067E-12