   0.00000000       0.00000000    
   1.00000005E-03   0.00000000    
   2.00000009E-03   0.00000000    
   3.00000003E-03   0.00000000    
   4.00000019E-03   0.00000000    
   4.99999989E-03   0.00000000    
   6.00000005E-03   0.00000000    
   7.00000022E-03   0.00000000    
   8.00000038E-03   0.00000000    
   8.99999961E-03   0.00000000    
   9.99999978E-03   0.00000000    
   1.09999999E-02   0.00000000    
   1.20000001E-02   0.00000000    
   1.30000003E-02   0.00000000    
   1.40000004E-02   1.72318659E-37
   1.49999997E-02   5.33462084E-37
   1.60000008E-02   2.16958239E-36
   1.70000009E-02   1.35054339E-36
   1.79999992E-02  -6.56598615E-36
   1.89999994E-02  -2.34868090E-35
   1.99999996E-02  -5.87247361E-35
   2.09999997E-02  -1.27449359E-34
   2.19999999E-02  -2.46009386E-34
   2.30000000E-02  -4.25391799E-34
   2.40000002E-02  -6.33139441E-34
   2.50000004E-02  -7.00742718E-34
   2.60000005E-02  -1.15708868E-34
   2.70000007E-02   2.41197537E-33
   2.80000009E-02   9.77953627E-33
   2.89999992E-02   2.80144049E-32
   2.99999993E-02   6.89401458E-32
   3.09999995E-02   1.54660180E-31
   3.20000015E-02   3.24832818E-31
   3.29999998E-02   6.48092165E-31
   3.40000018E-02   1.23943052E-30
   3.50000001E-02   2.28588512E-30
   3.59999985E-02   4.08343340E-30
   3.70000005E-02   7.08853111E-30
   3.79999988E-02   1.19881082E-29
   3.90000008E-02   1.97919936E-29
   3.99999991E-02   3.19513583E-29
   4.10000011E-02   5.05057253E-29
   4.19999994E-02   7.82590800E-29
   4.30000015E-02   1.18982122E-28
   4.39999998E-02   1.77632828E-28
   4.50000018E-02   2.60580151E-28
   4.60000001E-02   3.75806421E-28
   4.69999984E-02   5.33052246E-28
   4.80000004E-02   7.43853030E-28
   4.89999987E-02   1.02140019E-27
   5.00000007E-02   1.38014066E-27
   5.09999990E-02   1.83501161E-27
   5.20000011E-02   2.40018673E-27
   5.29999994E-02   3.08719810E-27
   5.40000014E-02   3.90228690E-27
   5.49999997E-02   4.84283559E-27
   5.60000017E-02   5.89275206E-27
   5.70000000E-02   7.01670051E-27
   5.79999983E-02   8.15312937E-27
   5.90000004E-02   9.20612925E-27
   5.99999987E-02   1.00362628E-26
   6.10000007E-02   1.04506529E-26
   6.19999990E-02   1.01927963E-26
   6.30000010E-02   8.93279665E-27
   6.40000030E-02   6.25896687E-27
   6.49999976E-02   1.67201746E-27
   6.59999996E-02  -5.41663560E-27
   6.70000017E-02  -1.56806042E-26
   6.80000037E-02  -2.98662061E-26
   6.89999983E-02  -4.87697108E-26
   7.00000003E-02  -7.32016205E-26
   7.10000023E-02  -1.03935456E-25
   7.19999969E-02  -1.41638583E-25
   7.29999989E-02  -1.86782874E-25
   7.40000010E-02  -2.39533793E-25
   7.50000030E-02  -2.99617260E-25
   7.59999976E-02  -3.66164704E-25
   7.69999996E-02  -4.37538940E-25
   7.80000016E-02  -5.11145185E-25
   7.90000036E-02  -5.83233858E-25
   7.99999982E-02  -6.48705763E-25
   8.10000002E-02  -7.00932497E-25
   8.20000023E-02  -7.31609374E-25
   8.29999968E-02  -7.30661755E-25
   8.39999989E-02  -6.86229559E-25
   8.50000009E-02  -5.84758134E-25
   8.60000029E-02  -4.11226534E-25
   8.69999975E-02  -1.49547012E-25
   8.79999995E-02   2.16831214E-25
   8.90000015E-02   7.04082221E-25
   9.00000036E-02   1.32689865E-24
   9.09999982E-02   2.09710231E-24
   9.20000002E-02   3.02196047E-24
   9.30000022E-02   4.10221279E-24
   9.39999968E-02   5.32983418E-24
   9.49999988E-02   6.68558592E-24
   9.60000008E-02   8.13643444E-24
   9.70000029E-02   9.63294775E-24
   9.79999974E-02   1.11068326E-23
   9.89999995E-02   1.24687954E-23
  0.100000001       1.36069671E-23
  0.101000004       1.43861676E-23
  0.101999998       1.46483156E-23
  0.103000000       1.42143269E-23
  0.104000002       1.28878446E-23
  0.104999997       1.04611507E-23
  0.105999999       6.72358219E-24
  0.107000001       1.47270589E-24
  0.108000003      -5.47156330E-24
  0.108999997      -1.42498619E-23
  0.109999999      -2.49434142E-23
  0.111000001      -3.75515209E-23
  0.112000003      -5.19671020E-23
  0.112999998      -6.79511657E-23
  0.114000000      -8.51073884E-23
  0.115000002      -1.02858330E-22
  0.115999997      -1.20425209E-22
  0.116999999      -1.36813384E-22
  0.118000001      -1.50806085E-22
  0.119000003      -1.60969100E-22
  0.119999997      -1.65669171E-22
  0.120999999      -1.63109008E-22
  0.122000001      -1.51381373E-22
  0.123000003      -1.28544392E-22
  0.123999998      -9.27197510E-23
  0.125000000      -4.22140738E-23
  0.126000002       2.43370752E-23
  0.127000004       1.07804646E-22
  0.128000006       2.08385181E-22
  0.128999993       3.25409440E-22
  0.129999995       4.57148656E-22
  0.130999997       6.00628949E-22
  0.131999999       7.51466626E-22
  0.133000001       9.03738844E-22
  0.134000003       1.04990606E-21
  0.135000005       1.18080527E-21
  0.136000007       1.28572948E-21
  0.136999995       1.35261357E-21
  0.137999997       1.36834172E-21
  0.138999999       1.31918869E-21
  0.140000001       1.19140484E-21
  0.141000003       9.71946913E-22
  0.142000005       6.49349453E-22
  0.143000007       2.14723016E-22
  0.143999994      -3.37145595E-22
  0.144999996      -1.00662741E-21
  0.145999998      -1.78806823E-21
  0.147000000      -2.66864985E-21
  0.148000002      -3.62736834E-21
  0.149000004      -4.63421274E-21
  0.150000006      -5.64963672E-21
  0.150999993      -6.62441697E-21
  0.151999995      -7.50000219E-21
  0.152999997      -8.20943558E-21
  0.153999999      -8.67894378E-21
  0.155000001      -8.83024836E-21
  0.156000003      -8.58363787E-21
  0.157000005      -7.86181292E-21
  0.158000007      -6.59446115E-21
  0.158999994      -4.72348241E-21
  0.159999996      -2.20872753E-21
  0.160999998       9.65950864E-22
  0.162000000       4.78658240E-21
  0.163000003       9.20321553E-21
  0.164000005       1.41246760E-20
  0.165000007       1.94143603E-20
  0.165999994       2.48875026E-20
  0.166999996       3.03103921E-20
  0.167999998       3.54019764E-20
  0.169000000       3.98383043E-20
  0.170000002       4.32601308E-20
  0.171000004       4.52839768E-20
  0.172000006       4.55167894E-20
  0.172999993       4.35741589E-20
  0.173999995       3.91018841E-20
  0.174999997       3.18004610E-20
  0.175999999       2.14517983E-20
  0.177000001       7.94722740E-21
  0.178000003      -8.68438104E-21
  0.179000005      -2.82498529E-20
  0.180000007      -5.03679484E-20
  0.180999994      -7.44504557E-20
  0.181999996      -9.96900691E-20
  0.182999998      -1.25057107E-19
  0.184000000      -1.49306915E-19
  0.185000002      -1.70999791E-19
  0.186000004      -1.88534831E-19
  0.187000006      -2.00198775E-19
  0.187999994      -2.04230247E-19
  0.188999996      -1.98899223E-19
  0.189999998      -1.82600611E-19
  0.191000000      -1.53959909E-19
  0.192000002      -1.11948039E-19
  0.193000004      -5.60012842E-20
  0.194000006       1.38588296E-20
  0.194999993       9.69115629E-20
  0.195999995       1.91635944E-19
  0.196999997       2.95630137E-19
  0.197999999       4.05559029E-19
  0.199000001       5.17138171E-19
  0.200000003       6.25161704E-19
  0.201000005       7.23581101E-19
  0.202000007       8.05640364E-19
  0.202999994       8.64071782E-19
  0.203999996       8.91353595E-19
  0.204999998       8.80028562E-19
  0.206000000       8.23079503E-19
  0.207000002       7.14353487E-19
  0.208000004       5.49022934E-19
  0.209000006       3.24068736E-19
  0.209999993       3.87657419E-20
  0.210999995      -3.04852917E-19
  0.211999997      -7.01577734E-19
  0.213000000      -1.14268012E-18
  0.214000002      -1.61567450E-18
  0.215000004      -2.10421513E-18
  0.216000006      -2.58815673E-18
  0.216999993      -3.04380504E-18
  0.217999995      -3.44437883E-18
  0.218999997      -3.76069849E-18
  0.219999999      -3.96210828E-18
  0.221000001      -4.01763154E-18
  0.222000003      -3.89734335E-18
  0.223000005      -3.57393434E-18
  0.224000007      -3.02442854E-18
  0.224999994      -2.23200006E-18
  0.225999996      -1.18782309E-18
  0.226999998       1.07125163E-19
  0.228000000       1.64039656E-18
  0.229000002       3.38663914E-18
  0.230000004       5.30650425E-18
  0.231000006       7.34599415E-18
  0.231999993       9.43636310E-18
  0.232999995       1.14946515E-17
  0.233999997       1.34249478E-17
  0.234999999       1.51204298E-17
  0.236000001       1.64662262E-17
  0.237000003       1.73430939E-17
  0.238000005       1.76318908E-17
  0.238999993       1.72187686E-17
  0.239999995       1.60009702E-17
  0.240999997       1.38930642E-17
  0.241999999       1.08334281E-17
  0.243000001       6.79073179E-18
  0.244000003       1.77012763E-18
  0.245000005      -4.18115274E-18
  0.246000007      -1.09691280E-17
  0.246999994      -1.84496796E-17
  0.247999996      -2.64267629E-17
  0.248999998      -3.46525579E-17
  0.250000000      -4.28298272E-17
  0.250999987      -5.06167202E-17
  0.252000004      -5.76341731E-17
  0.252999991      -6.34759476E-17
  0.254000008      -6.77213562E-17
  0.254999995      -6.99504094E-17
  0.256000012      -6.97611769E-17
  0.256999999      -6.67889449E-17
  0.257999986      -6.07265846E-17
  0.259000003      -5.13454895E-17
  0.259999990      -3.85162888E-17
  0.261000007      -2.22284160E-17
  0.261999995      -2.60759093E-18
  0.263000011       2.00698071E-17
  0.263999999       4.53665023E-17
  0.264999986       7.26792121E-17
  0.266000003       1.01239542E-16
  0.266999990       1.30121704E-16
  0.268000007       1.58257611E-16
  0.268999994       1.84459768E-16
  0.270000011       2.07452054E-16
  0.270999998       2.25908134E-16
  0.272000015       2.38496976E-16
  0.273000002       2.43934557E-16
  0.273999989       2.41040510E-16
  0.275000006       2.28797972E-16
  0.275999993       2.06414703E-16
  0.277000010       1.73383092E-16
  0.277999997       1.29536682E-16
  0.279000014       7.51002241E-17
  0.280000001       1.07307891E-17
  0.280999988      -6.24531156E-17
  0.282000005      -1.42856911E-16
  0.282999992      -2.28412149E-16
  0.284000009      -3.16597543E-16
  0.284999996      -4.04480361E-16
  0.286000013      -4.88778827E-16
  0.287000000      -5.65945593E-16
  0.287999988      -6.32271555E-16
  0.289000005      -6.84008380E-16
  0.289999992      -7.17506945E-16
  0.291000009      -7.29368054E-16
  0.291999996      -7.16601044E-16
  0.293000013      -6.76784884E-16
  0.294000000      -6.08225878E-16
  0.294999987      -5.10105105E-16
  0.296000004      -3.82608753E-16
  0.296999991      -2.27034476E-16
  0.298000008      -4.58666885E-17
  0.298999995       1.57185453E-16
  0.300000012       3.77192877E-16
  0.300999999       6.08059118E-16
  0.301999986       8.42623294E-16
  0.303000003       1.07281509E-15
  0.303999990       1.28986167E-15
  0.305000007       1.48454277E-15
  0.305999994       1.64749126E-15
  0.307000011       1.76953028E-15
  0.307999998       1.84203853E-15
  0.308999985       1.85733255E-15
  0.310000002       1.80905273E-15
  0.310999990       1.69253742E-15
  0.312000006       1.50517183E-15
  0.312999994       1.24669263E-15
  0.314000010       9.19433724E-16
  0.314999998       5.28497049E-16
  0.316000015       8.18349765E-17
  0.317000002      -4.09769420E-16
  0.317999989      -9.32831985E-16
  0.319000006      -1.47141354E-15
  0.319999993      -2.00748439E-15
  0.321000010      -2.52140448E-15
  0.321999997      -2.99251129E-15
  0.323000014      -3.39980496E-15
  0.324000001      -3.72271065E-15
  0.324999988      -3.94189737E-15
  0.326000005      -4.04012820E-15
  0.326999992      -4.00310735E-15
  0.328000009      -3.82029689E-15
  0.328999996      -3.48566149E-15
  0.330000013      -2.99831113E-15
  0.331000000      -2.36300466E-15
  0.331999987      -1.59048001E-15
  0.333000004      -6.97584942E-16
  0.333999991       2.92817331E-16
  0.335000008       1.35218392E-15
  0.335999995       2.44687913E-15
  0.337000012       3.53901250E-15
  0.338000000       4.58751774E-15
  0.338999987       5.54945197E-15
  0.340000004       6.38148651E-15
  0.340999991       7.04154540E-15
  0.342000008       7.49054190E-15
  0.342999995       7.69415337E-15
  0.344000012       7.62456877E-15
  0.344999999       7.26213862E-15
  0.345999986       6.59684802E-15
  0.347000003       5.62954868E-15
  0.347999990       4.37286985E-15
  0.349000007       2.85175008E-15
  0.349999994       1.10353168E-15
  0.351000011      -8.22421770E-16
  0.351999998      -2.86561538E-15
  0.352999985      -4.95582799E-15
  0.354000002      -7.01502353E-15
  0.354999989      -8.95973833E-15
  0.356000006      -1.07038901E-14
  0.356999993      -1.21619388E-14
  0.358000010      -1.32522997E-14
  0.358999997      -1.39009042E-14
  0.360000014      -1.40447727E-14
  0.361000001      -1.36354627E-14
  0.361999989      -1.26422480E-14
  0.363000005      -1.10548743E-14
  0.363999993      -8.88575255E-15
  0.365000010      -6.17144309E-15
  0.365999997      -2.97332536E-15
  0.367000014       6.22658261E-16
  0.368000001       4.50724527E-15
  0.368999988       8.55012675E-15
  0.370000005       1.26032455E-14
  0.370999992       1.65050824E-14
  0.372000009       2.00858431E-14
  0.372999996       2.31734221E-14
  0.374000013       2.55999852E-14
  0.375000000       2.72089446E-14
  0.375999987       2.78621019E-14
  0.377000004       2.74466983E-14
  0.377999991       2.58820692E-14
  0.379000008       2.31256241E-14
  0.379999995       1.91778559E-14
  0.381000012       1.40860961E-14
  0.381999999       7.94676909E-15
  0.382999986       9.05926725E-16
  0.384000003      -6.84210557E-15
  0.384999990      -1.50580791E-14
  0.386000007      -2.34631989E-14
  0.386999995      -3.17465035E-14
  0.388000011      -3.95741111E-14
  0.388999999      -4.66001681E-14
  0.389999986      -5.24791595E-14
  0.391000003      -5.68792653E-14
  0.391999990      -5.94963328E-14
  0.393000007      -6.00679581E-14
  0.393999994      -5.83871262E-14
  0.395000011      -5.43149103E-14
  0.395999998      -4.77915979E-14
  0.397000015      -3.88457170E-14
  0.398000002      -2.76004500E-14
  0.398999989      -1.42769521E-14
  0.400000006       8.05787525E-16
  0.400999993       1.72348267E-14
  0.402000010       3.45110395E-14
  0.402999997       5.20608066E-14
  0.404000014       6.92514893E-14
  0.405000001       8.54103978E-14
  0.405999988       9.98468344E-14
  0.407000005       1.11876579E-13
  0.407999992       1.20848129E-13
  0.409000009       1.26169799E-13
  0.409999996       1.27336780E-13
  0.411000013       1.23957065E-13
  0.412000000       1.15775160E-13
  0.412999988       1.02692655E-13
  0.414000005       8.47844676E-14
  0.414999992       6.23098646E-14
  0.416000009       3.57175057E-14
  0.416999996       5.64379069E-15
  0.418000013      -2.70959352E-14
  0.419000000      -6.15235198E-14
  0.419999987      -9.65214440E-14
  0.421000004      -1.30863216E-13
  0.421999991      -1.63250205E-13
  0.423000008      -1.92353932E-13
  0.423999995      -2.16862634E-13
  0.425000012      -2.35530806E-13
  0.425999999      -2.47230052E-13
  0.426999986      -2.50999362E-13
  0.428000003      -2.46092968E-13
  0.428999990      -2.32023954E-13
  0.430000007      -2.08601501E-13
  0.430999994      -1.75959968E-13
  0.432000011      -1.34578248E-13
  0.432999998      -8.52878559E-14
  0.433999985      -2.92687051E-14
  0.435000002       3.19682059E-14
  0.435999990       9.66114667E-14
  0.437000006       1.62593124E-13
  0.437999994       2.27645078E-13
  0.439000010       2.89366865E-13
  0.439999998       3.45303023E-13
  0.441000015       3.93028112E-13
  0.442000002       4.30236494E-13
  0.442999989       4.54834250E-13
  0.444000006       4.65029924E-13
  0.444999993       4.59420533E-13
  0.446000010       4.37069516E-13
  0.446999997       3.97573359E-13
  0.448000014       3.41113585E-13
  0.449000001       2.68491094E-13
  0.449999988       1.81140584E-13
  0.451000005       8.11231643E-14
  0.451999992      -2.89041015E-14
  0.453000009      -1.45742129E-13
  0.453999996      -2.65726839E-13
  0.455000013      -3.84828156E-13
  0.456000000      -4.98768615E-13
  0.456999987      -6.03158853E-13
  0.458000004      -6.93646150E-13
  0.458999991      -7.66071451E-13
  0.460000008      -8.16629913E-13
  0.460999995      -8.42029300E-13
  0.462000012      -8.39640748E-13
  0.463000000      -8.07635642E-13
  0.463999987      -7.45102981E-13
  0.465000004      -6.52141915E-13
  0.465999991      -5.29924520E-13
  0.467000008      -3.80724505E-13
  0.467999995      -2.07909048E-13
  0.469000012      -1.58915578E-14
  0.469999999       1.89955473E-13
  0.470999986       4.03426777E-13
  0.472000003       6.17647752E-13
  0.472999990       8.25271438E-13
  0.474000007       1.01870444E-12
  0.474999994       1.19035532E-12
  0.476000011       1.33289798E-12
  0.476999998       1.43954217E-12
  0.477999985       1.50430157E-12
  0.479000002       1.52224999E-12
  0.479999989       1.48975645E-12
  0.481000006       1.40468908E-12
  0.481999993       1.26657918E-12
  0.483000010       1.07673755E-12
  0.483999997       8.38316504E-13
  0.485000014       5.56311345E-13
  0.486000001       2.37498768E-13
  0.486999989      -1.09689411E-13
  0.488000005      -4.75356896E-13
  0.488999993      -8.48394380E-13
  0.490000010      -1.21678709E-12
  0.490999997      -1.56797036E-12
  0.492000014      -1.88922359E-12
  0.493000001      -2.16809231E-12
  0.493999988      -2.39282314E-12
  0.495000005      -2.55279955E-12
  0.495999992      -2.63896262E-12
  0.497000009      -2.64420083E-12
  0.497999996      -2.56369600E-12
  0.499000013      -2.39520903E-12
  0.500000000      -2.13929373E-12
  0.500999987      -1.79942812E-12
  0.501999974      -1.38205311E-12
  0.503000021      -8.96513874E-13
  0.504000008      -3.54900760E-13
  0.504999995       2.28210625E-13
  0.505999982       8.36115357E-13
  0.507000029       1.45042474E-12
  0.508000016       2.05158980E-12
  0.509000003       2.61948991E-12
  0.509999990       3.13406896E-12
  0.510999978       3.57600039E-12
  0.512000024       3.92736017E-12
  0.513000011       4.17228361E-12
  0.513999999       4.29758746E-12
  0.514999986       4.29333045E-12
  0.515999973       4.15329359E-12
  0.517000020       3.87535750E-12
  0.518000007       3.46176343E-12
  0.518999994       2.91924167E-12
  0.519999981       2.25899616E-12
  0.521000028       1.49654269E-12
  0.522000015       6.51397556E-13
  0.523000002      -2.53378996E-13
  0.523999989      -1.19177628E-12
  0.524999976      -2.13554781E-12
  0.526000023      -3.05503019E-12
  0.527000010      -3.92004311E-12
  0.527999997      -4.70084345E-12
  0.528999984      -5.36910533E-12
  0.529999971      -5.89889292E-12
  0.531000018      -6.26759625E-12
  0.532000005      -6.45679560E-12
  0.532999992      -6.45302431E-12
  0.533999979      -6.24840110E-12
  0.535000026      -5.84110624E-12
  0.536000013      -5.23567864E-12
  0.537000000      -4.44311905E-12
  0.537999988      -3.48078857E-12
  0.538999975      -2.37209904E-12
  0.540000021      -1.14599530E-12
  0.541000009       1.63759956E-13
  0.541999996       1.51948072E-12
  0.542999983       2.88061176E-12
  0.544000030       4.20491203E-12
  0.545000017       5.44973311E-12
  0.546000004       6.57335558E-12
  0.546999991       7.53634394E-12
  0.547999978       8.30286968E-12
  0.549000025       8.84196882E-12
  0.550000012       9.12868479E-12
  0.550999999       9.14505797E-12
  0.551999986       8.88092638E-12
  0.552999973       8.33450236E-12
  0.554000020       7.51270574E-12
  0.555000007       6.43123272E-12
  0.555999994       5.11434428E-12
  0.556999981       3.59438694E-12
  0.558000028       1.91103882E-12
  0.559000015       1.10305320E-13
  0.560000002      -1.75671196E-12
  0.560999990      -3.63524358E-12
  0.561999977      -5.46843387E-12
  0.563000023      -7.19903434E-12
  0.564000010      -8.77115307E-12
  0.564999998      -1.01320124E-11
  0.565999985      -1.12336572E-11
  0.566999972      -1.20345574E-11
  0.568000019      -1.25010557E-11
  0.569000006      -1.26086103E-11
  0.569999993      -1.23427891E-11
  0.570999980      -1.16999769E-11
  0.572000027      -1.06877701E-11
  0.573000014      -9.32503987E-12
  0.574000001      -7.64165120E-12
  0.574999988      -5.67784491E-12
  0.575999975      -3.48328918E-12
  0.577000022      -1.11582488E-12
  0.578000009       1.36006083E-12
  0.578999996       3.87499321E-12
  0.579999983       6.35665175E-12
  0.580999970       8.73184077E-12
  0.582000017       1.09286252E-11
  0.583000004       1.28784700E-11
  0.583999991       1.45183197E-11
  0.584999979       1.57925582E-11
  0.586000025       1.66547748E-11
  0.587000012       1.70693026E-11
  0.588000000       1.70124626E-11
  0.588999987       1.64734788E-11
  0.589999974       1.54550331E-11
  0.591000021       1.39734457E-11
  0.592000008       1.20584584E-11
  0.592999995       9.75263099E-12
  0.593999982       7.11036785E-12
  0.595000029       4.19658839E-12
  0.596000016       1.08508547E-12
  0.597000003      -2.14338616E-12
  0.597999990      -5.40324122E-12
  0.598999977      -8.60635261E-12
  0.600000024      -1.16644368E-11
  0.601000011      -1.44914688E-11
  0.601999998      -1.70060563E-11
  0.602999985      -1.91337154E-11
  0.603999972      -2.08089674E-11
  0.605000019      -2.19772169E-11
  0.606000006      -2.25963519E-11
  0.606999993      -2.26380199E-11
  0.607999980      -2.20885463E-11
  0.609000027      -2.09494696E-11
  0.610000014      -1.92376844E-11
  0.611000001      -1.69851789E-11
  0.611999989      -1.42383830E-11
  0.612999976      -1.10571413E-11
  0.614000022      -7.51333717E-12
  0.615000010      -3.68920606E-12
  0.615999997       3.24619455E-13
  0.616999984       4.43128173E-12
  0.617999971       8.53003432E-12
  0.619000018       1.25186788E-11
  0.620000005       1.62960513E-11
  0.620999992       1.97644921E-11
  0.621999979       2.28322309E-11
  0.623000026       2.54156644E-11
  0.624000013       2.74414276E-11
  0.625000000       2.88482450E-11
  0.625999987       2.95885157E-11
  0.626999974       2.96295939E-11
  0.628000021       2.89547258E-11
  0.629000008       2.75636527E-11
  0.629999995       2.54728478E-11
  0.630999982       2.27153817E-11
  0.632000029       1.93404268E-11
  0.633000016       1.54124109E-11
  0.634000003       1.10098397E-11
  0.634999990       6.22380099E-12
  0.635999978       1.15618582E-12
  0.637000024      -4.08234124E-12
  0.638000011      -9.37458618E-12
  0.638999999      -1.45992420E-11
  0.639999986      -1.96334372E-11
  0.640999973      -2.43553632E-11
  0.642000020      -2.86469459E-11
  0.643000007      -3.23965021E-11
  0.643999994      -3.55013276E-11
  0.644999981      -3.78701792E-11
  0.646000028      -3.94256017E-11
  0.647000015      -4.01060296E-11
  0.648000002      -3.98676404E-11
  0.648999989      -3.86859086E-11
  0.649999976      -3.65568131E-11
  0.651000023      -3.34976595E-11
  0.652000010      -2.95474895E-11
  0.652999997      -2.47670443E-11
  0.653999984      -1.92382742E-11
  0.654999971      -1.30633490E-11
  0.656000018      -6.36319946E-12
  0.657000005       7.24425728E-13
  0.657999992       8.04737006E-12
  0.658999979       1.54419203E-11
  0.660000026       2.27360648E-11
  0.661000013       2.97530958E-11
  0.662000000       3.63155200E-11
  0.662999988       4.22491729E-11
  0.663999975       4.73875002E-11
  0.665000021       5.15758651E-11
  0.666000009       5.46758021E-11
  0.666999996       5.65691279E-11
  0.667999983       5.71617684E-11
  0.669000030       5.63872039E-11
  0.670000017       5.42094390E-11
  0.671000004       5.06253546E-11
  0.671999991       4.56663804E-11
  0.672999978       3.93993865E-11
  0.674000025       3.19267182E-11
  0.675000012       2.33853353E-11
  0.675999999       1.39450274E-11
  0.676999986       3.80565761E-12
  0.677999973      -6.80648420E-12
  0.679000020      -1.76432324E-11
  0.680000007      -2.84398963E-11
  0.680999994      -3.89213349E-11
  0.681999981      -4.88086065E-11
  0.683000028      -5.78260773E-11
  0.684000015      -6.57087856E-11
  0.685000002      -7.22099117E-11
  0.685999990      -7.71081116E-11
  0.686999977      -8.02145433E-11
  0.688000023      -8.13793616E-11
  0.689000010      -8.04974698E-11
  0.689999998      -7.75133083E-11
  0.690999985      -7.24245594E-11
  0.691999972      -6.52845555E-11
  0.693000019      -5.62032712E-11
  0.694000006      -4.53468062E-11
  0.694999993      -3.29353003E-11
  0.695999980      -1.92392751E-11
  0.697000027      -4.57440683E-12
  0.698000014       1.07051807E-11
  0.699000001       2.62149816E-11
  0.699999988       4.15493681E-11
  0.700999975       5.62918497E-11
  0.702000022       7.00260544E-11
  0.703000009       8.23471846E-11
  0.703999996       9.28736185E-11
  0.704999983       1.01258349E-10
  0.705999970       1.07199929E-10
  0.707000017       1.10452578E-10
  0.708000004       1.10835119E-10
  0.708999991       1.08238474E-10
  0.709999979       1.02631431E-10
  0.711000025       9.40644368E-11
  0.712000012       8.26712310E-11
  0.713000000       6.86682031E-11
  0.713999987       5.23514079E-11
  0.714999974       3.40912125E-11
  0.716000021       1.43246344E-11
  0.717000008      -6.45445589E-12
  0.717999995      -2.77071074E-11
  0.718999982      -4.88627680E-11
  0.720000029      -6.93341287E-11
  0.721000016      -8.85329726E-11
  0.722000003      -1.05886598E-10
  0.722999990      -1.20854382E-10
  0.723999977      -1.32944003E-10
  0.725000024      -1.41726866E-10
  0.726000011      -1.46852266E-10
  0.726999998      -1.48059773E-10
  0.727999985      -1.45189527E-10
  0.728999972      -1.38190015E-10
  0.730000019      -1.27123034E-10
  0.731000006      -1.12165652E-10
  0.731999993      -9.36089331E-11
  0.732999980      -7.18534399E-11
  0.734000027      -4.74014855E-11
  0.735000014      -2.08462761E-11
  0.736000001       7.14183747E-12
  0.736999989       3.58317126E-11
  0.737999976       6.44499801E-11
  0.739000022       9.22013715E-11
  0.740000010       1.18290239E-10
  0.740999997       1.41942791E-10
  0.741999984       1.62429292E-10
  0.742999971       1.79085760E-10
  0.744000018       1.91334379E-10
  0.745000005       1.98702096E-10
  0.745999992       2.00836875E-10
  0.746999979       1.97520944E-10
  0.748000026       1.88680668E-10
  0.749000013       1.74392709E-10
  0.750000000       1.54886090E-10
  0.750999987       1.30540107E-10
  0.751999974       1.01877951E-10
  0.753000021       6.95561525E-11
  0.754000008       3.43500436E-11
  0.754999995      -2.86451418E-12
  0.755999982      -4.11326390E-11
  0.757000029      -7.94447216E-11
  0.758000016      -1.16762863E-10
  0.759000003      -1.52048762E-10
  0.759999990      -1.84292290E-10
  0.760999978      -2.12540069E-10
  0.762000024      -2.35923059E-10
  0.763000011      -2.53682658E-10
  0.763999999      -2.65194089E-10
  0.764999986      -2.69986922E-10
  0.765999973      -2.67761646E-10
  0.767000020      -2.58401939E-10
  0.768000007      -2.41982073E-10
  0.768999994      -2.18769336E-10
  0.769999981      -1.89221097E-10
  0.771000028      -1.53976526E-10
  0.772000015      -1.13843150E-10
  0.773000002      -6.97784330E-11
  0.773999989      -2.28668248E-11
  0.774999976       2.57071846E-11
  0.776000023       7.46893589E-11
  0.777000010       1.22788543E-10
  0.777999997       1.68711212E-10
  0.778999984       2.11196768E-10
  0.779999971       2.49052640E-10
  0.781000018       2.81188212E-10
  0.782000005       3.06646569E-10
  0.782999992       3.24633209E-10
  0.783999979       3.34540756E-10
  0.785000026       3.35969030E-10
  0.786000013       3.28739674E-10
  0.787000000       3.12905035E-10
  0.787999988       2.88750690E-10
  0.788999975       2.56791727E-10
  0.790000021       2.17762433E-10
  0.791000009       1.72599851E-10
  0.791999996       1.22421392E-10
  0.792999983       6.84970761E-11
  0.794000030       1.22170607E-11
  0.795000017      -4.49446522E-11
  0.796000004      -1.01469493E-10
  0.796999991      -1.55835442E-10
  0.797999978      -2.06558895E-10
  0.799000025      -2.52236149E-10
  0.800000012      -2.91583230E-10
  0.800999999      -3.23473193E-10
  0.801999986      -3.46969342E-10
  0.802999973      -3.61353863E-10
  0.804000020      -3.66150638E-10
  0.805000007      -3.61141783E-10
  0.805999994      -3.46377066E-10
  0.806999981      -3.22176008E-10
  0.808000028      -2.89122531E-10
  0.809000015      -2.48052051E-10
  0.810000002      -2.00031353E-10
  0.810999990      -1.46331711E-10
  0.811999977      -8.83958323E-11
  0.813000023      -2.77996064E-11
  0.814000010       3.37904670E-11
  0.814999998       9.46629719E-11
  0.815999985       1.53109136E-10
  0.816999972       2.07470971E-10
  0.818000019       2.56188598E-10
  0.819000006       2.97845498E-10
  0.819999993       3.31210198E-10
  0.820999980       3.55273339E-10
  0.822000027       3.69278913E-10
  0.823000014       3.72748832E-10
  0.824000001       3.65499825E-10
  0.824999988       3.47652213E-10
  0.825999975       3.19630239E-10
  0.827000022       2.82153773E-10
  0.828000009       2.36221487E-10
  0.828999996       1.83085824E-10
  0.829999983       1.24220634E-10
  0.830999970       6.12817991E-11
  0.832000017      -3.93757943E-12
  0.833000004      -6.95566521E-11
  0.833999991      -1.33659417E-10
  0.834999979      -1.94349009E-10
  0.836000025      -2.49802207E-10
  0.837000012      -2.98322672E-10
  0.838000000      -3.38391204E-10
  0.838999987      -3.68711839E-10
  0.839999974      -3.88252236E-10
  0.841000021      -3.96277122E-10
  0.842000008      -3.92373939E-10
  0.842999995      -3.76469800E-10
  0.843999982      -3.48839041E-10
  0.845000029      -3.10101195E-10
  0.846000016      -2.61209387E-10
  0.847000003      -2.03429107E-10
  0.847999990      -1.38308004E-10
  0.848999977      -6.76375483E-11
  0.850000024       6.59277494E-12
  0.851000011       8.22473270E-11
  0.851999998       1.57100888E-10
  0.852999985       2.28898553E-10
  0.853999972       2.95417246E-10
  0.855000019       3.54527158E-10
  0.856000006       4.04251493E-10