   0.00000000       0.00000000    
   1.00000005E-03   0.00000000    
   2.00000009E-03  -1.67111307E-11
   3.00000003E-03  -8.02616515E-11
   4.00000019E-03  -2.27576138E-10
   4.99999989E-03  -4.93141583E-10
   6.00000005E-03  -8.98206343E-10
   7.00000022E-03  -1.43968604E-09
   8.00000038E-03  -2.08019046E-09
   8.99999961E-03  -2.74062240E-09
   9.99999978E-03  -3.29659744E-09
   1.09999999E-02  -3.57975782E-09
   1.20000001E-02  -3.38475803E-09
   1.30000003E-02  -2.48198551E-09
   1.40000004E-02  -6.36024122E-10
   1.49999997E-02   2.37130049E-09
   1.60000008E-02   6.71424649E-09
   1.70000009E-02   1.24946897E-08
   1.79999992E-02   1.97144878E-08
   1.89999994E-02   2.82502413E-08
   1.99999996E-02   3.78337823E-08
   2.09999997E-02   4.80400750E-08
   2.19999999E-02   5.82851811E-08
   2.30000000E-02   6.78357424E-08
   2.40000002E-02   7.58310321E-08
   2.50000004E-02   8.13177294E-08
   2.60000005E-02   8.32975573E-08
   2.70000007E-02   8.07852416E-08
   2.80000009E-02   7.28756575E-08
   2.89999992E-02   5.88159921E-08
   2.99999993E-02   3.80797189E-08
   3.09999995E-02   1.04376161E-08
   3.20000015E-02  -2.39789273E-08
   3.29999998E-02  -6.46269882E-08
   3.40000018E-02  -1.10517995E-07
   3.50000001E-02  -1.60205829E-07
   3.59999985E-02  -2.11797513E-07
   3.70000005E-02  -2.62993098E-07
   3.79999988E-02  -3.11150359E-07
   3.90000008E-02  -3.53379647E-07
   3.99999991E-02  -3.86660957E-07
   4.10000011E-02  -4.07984373E-07
   4.19999994E-02  -4.14505706E-07
   4.30000015E-02  -4.03711766E-07
   4.39999998E-02  -3.73588080E-07
   4.50000018E-02  -3.22779101E-07
   4.60000001E-02  -2.50733450E-07
   4.69999984E-02  -1.57824545E-07
   4.80000004E-02  -4.54375488E-08
   4.89999987E-02   8.39828047E-08
   5.00000007E-02   2.26932968E-07
   5.09999990E-02   3.78900637E-07
   5.20000011E-02   5.34468541E-07
   5.29999994E-02   6.87471129E-07
   5.40000014E-02   8.31200623E-07
   5.49999997E-02   9.58657097E-07
   5.60000017E-02   1.06283437E-06
   5.70000000E-02   1.13703311E-06
   5.79999983E-02   1.17518186E-06
   5.90000004E-02   1.17216393E-06
   5.99999987E-02   1.12412101E-06
   6.10000007E-02   1.02873025E-06
   6.19999990E-02   8.85431461E-07
   6.30000010E-02   6.95596214E-07
   6.40000030E-02   4.62624513E-07
   6.49999976E-02   1.91957241E-07
   6.59999996E-02  -1.08994861E-07
   6.70000017E-02  -4.31015962E-07
   6.80000037E-02  -7.63339187E-07
   6.89999983E-02  -1.09398093E-06
   7.00000003E-02  -1.41015505E-06
   7.10000023E-02  -1.69874340E-06
   7.19999969E-02  -1.94681184E-06
   7.29999989E-02  -2.14215470E-06
   7.40000010E-02  -2.27383362E-06
   7.50000030E-02  -2.33270475E-06
   7.59999976E-02  -2.31189620E-06
   7.69999996E-02  -2.20721950E-06
   7.80000016E-02  -2.01749526E-06
   7.90000036E-02  -1.74476872E-06
   7.99999982E-02  -1.39440817E-06
   8.10000002E-02  -9.75066769E-07
   8.20000023E-02  -4.98515760E-07
   8.29999968E-02   2.06659916E-08
   8.39999989E-02   5.65527102E-07
   8.50000009E-02   1.11729571E-06
   8.60000029E-02   1.65603365E-06
   8.69999975E-02   2.16136505E-06
   8.79999995E-02   2.61325476E-06
   8.90000015E-02   2.99280737E-06
   9.00000036E-02   3.28305464E-06
   9.09999982E-02   3.46969568E-06
   9.20000002E-02   3.54176336E-06
   9.30000022E-02   3.49217703E-06
   9.39999968E-02   3.31817068E-06
   9.49999988E-02   3.02155672E-06
   9.60000008E-02   2.60882143E-06
   9.70000029E-02   2.09103814E-06
   9.79999974E-02   1.48359459E-06
   9.89999995E-02   8.05740399E-07
  0.100000001       7.99700430E-08
  0.101000004      -6.68742871E-07
  0.101999998      -1.41383362E-06
  0.103000000      -2.12811801E-06
  0.104000002      -2.78482116E-06
  0.104999997      -3.35861250E-06
  0.105999999      -3.82661892E-06
  0.107000001      -4.16935563E-06
  0.108000003      -4.37155950E-06
  0.108999997      -4.42286546E-06
  0.109999999      -4.31831859E-06
  0.111000001      -4.05867104E-06
  0.112000003      -3.65047663E-06
  0.112999998      -3.10594919E-06
  0.114000000      -2.44260696E-06
  0.115000002      -1.68269378E-06
  0.115999997      -8.52414189E-07
  0.116999999       1.90043590E-08
  0.118000001       9.00377927E-07
  0.119000003       1.75972957E-06
  0.119999997       2.56549379E-06
  0.120999999       3.28772740E-06
  0.122000001       3.89927027E-06
  0.123000003       4.37680637E-06
  0.123999998       4.70179612E-06
  0.125000000       4.86122508E-06
  0.126000002       4.84814518E-06
  0.127000004       4.66198844E-06
  0.128000006       4.30862565E-06
  0.128999993       3.80019173E-06
  0.129999995       3.15464195E-06
  0.130999997       2.39510041E-06
  0.131999999       1.54899101E-06
  0.133000001       6.47004299E-07
  0.134000003      -2.78070388E-07
  0.135000005      -1.19259528E-06
  0.136000007      -2.06336949E-06
  0.136999995      -2.85889746E-06
  0.137999997      -3.55059228E-06
  0.138999999      -4.11385872E-06
  0.140000001      -4.52902759E-06
  0.141000003      -4.78208221E-06
  0.142000005      -4.86516956E-06
  0.143000007      -4.77686172E-06
  0.143999994      -4.52216636E-06
  0.144999996      -4.11228439E-06
  0.145999998      -3.56411920E-06
  0.147000000      -2.89957143E-06
  0.148000002      -2.14463694E-06
  0.149000004      -1.32835612E-06
  0.150000006      -4.81645429E-07
  0.150999993       3.63924613E-07
  0.151999995       1.17737034E-06
  0.152999997       1.92949210E-06
  0.153999999       2.59398666E-06
  0.155000001       3.14843010E-06
  0.156000003       3.57508179E-06
  0.157000005       3.86149986E-06
  0.158000007       4.00092358E-06
  0.158999994       3.99242208E-06
  0.159999996       3.84080613E-06
  0.160999998       3.55630641E-06
  0.162000000       3.15403599E-06
  0.163000003       2.65326980E-06
  0.164000005       2.07656262E-06
  0.165000007       1.44875185E-06
  0.165999994       7.95898131E-07
  0.166999996       1.44187013E-07
  0.167999998      -4.81138329E-07
  0.169000000      -1.05678225E-06
  0.170000002      -1.56229271E-06
  0.171000004      -1.98081489E-06
  0.172000006      -2.29967122E-06
  0.172999993      -2.51074971E-06
  0.173999995      -2.61068635E-06
  0.174999997      -2.60083789E-06
  0.175999999      -2.48705578E-06
  0.177000001      -2.27926830E-06
  0.178000003      -1.99090391E-06
  0.179000005      -1.63818015E-06
  0.180000007      -1.23929044E-06
  0.180999994      -8.13536019E-07
  0.181999996      -3.80435466E-07
  0.182999998       4.11441157E-08
  0.184000000       4.33790547E-07
  0.185000002       7.82262020E-07
  0.186000004       1.07407618E-06
  0.187000006       1.29994316E-06
  0.187999994       1.45404556E-06
  0.188999996       1.53413896E-06
  0.189999998       1.54148495E-06
  0.191000000       1.48061974E-06
  0.192000002       1.35897653E-06
  0.193000004       1.18638479E-06
  0.194000006       9.74471845E-07
  0.194999993       7.36004893E-07
  0.195999995       4.84200314E-07
  0.196999997       2.32040378E-07
  0.197999999      -8.37231440E-09
  0.199000001      -2.26384742E-07
  0.200000003      -4.13270072E-07
  0.201000005      -5.62582159E-07
  0.202000007      -6.70378881E-07
  0.202999994      -7.35298954E-07
  0.203999996      -7.58498857E-07
  0.204999998      -7.43457008E-07
  0.206000000      -6.95650328E-07
  0.207000002      -6.22138202E-07
  0.208000004      -5.31059698E-07
  0.209000006      -4.31092730E-07
  0.209999993      -3.30891908E-07
  0.210999995      -2.38539542E-07
  0.211999997      -1.61047126E-07
  0.213000000      -1.03928869E-07
  0.214000002      -7.08655534E-08
  0.215000004      -6.34876827E-08
  0.216000006      -8.12931802E-08
  0.216999993      -1.21676933E-07
  0.217999995      -1.80113801E-07
  0.218999997      -2.50441161E-07
  0.219999999      -3.25260203E-07
  0.221000001      -3.96412389E-07
  0.222000003      -4.55514993E-07
  0.223000005      -4.94517337E-07
  0.224000007      -5.06261244E-07
  0.224999994      -4.84994018E-07
  0.225999996      -4.26819781E-07
  0.226999998      -3.30050398E-07
  0.228000000      -1.95445097E-07
  0.229000002      -2.63093440E-08
  0.230000004       1.71545850E-07
  0.231000006       3.89997723E-07
  0.231999993       6.18936724E-07
  0.232999995       8.46728938E-07
  0.233999997       1.06078028E-06
  0.234999999       1.24818621E-06
  0.236000001       1.39642407E-06
  0.237000003       1.49407106E-06
  0.238000005       1.53148346E-06
  0.238999993       1.50143035E-06
  0.239999995       1.39962390E-06
  0.240999997       1.22512870E-06
  0.241999999       9.80612754E-07
  0.243000001       6.72431952E-07
  0.244000003       3.10529714E-07
  0.245000005      -9.18482286E-08
  0.246000007      -5.18620027E-07
  0.246999994      -9.51491245E-07
  0.247999996      -1.37072288E-06
  0.248999998      -1.75600155E-06
  0.250000000      -2.08738038E-06
  0.250999987      -2.34624599E-06
  0.252000004      -2.51626147E-06
  0.252999991      -2.58425121E-06
  0.254000008      -2.54096926E-06
  0.254999995      -2.38171947E-06
  0.256000012      -2.10679104E-06
  0.256999999      -1.72168461E-06
  0.257999986      -1.23709890E-06
  0.259000003      -6.68688699E-07
  0.259999990      -3.65851562E-08
  0.261000007       6.35307288E-07
  0.261999995       1.32020728E-06
  0.263000011       1.98951398E-06
  0.263999999       2.61399259E-06
  0.264999986       3.16501541E-06
  0.266000003       3.61583443E-06
  0.266999990       3.94280232E-06
  0.268000007       4.12649797E-06
  0.268999994       4.15271734E-06
  0.270000011       4.01324633E-06
  0.270999998       3.70642260E-06
  0.272000015       3.23740869E-06
  0.273000002       2.61819196E-06
  0.273999989       1.86728789E-06
  0.275000006       1.00916975E-06
  0.275999993       7.34003152E-08
  0.277000010      -9.06436924E-07
  0.277999997      -1.89402738E-06
  0.279000014      -2.85174610E-06
  0.280000001      -3.74217348E-06
  0.280999988      -4.52962286E-06
  0.282000005      -5.18162506E-06
  0.282999992      -5.67032521E-06
  0.284000009      -5.97367216E-06
  0.284999996      -6.07642733E-06
  0.286000013      -5.97087592E-06
  0.287000000      -5.65724713E-06
  0.287999988      -5.14380099E-06
  0.289000005      -4.44660145E-06
  0.289999992      -3.58893408E-06
  0.291000009      -2.60044931E-06
  0.291999996      -1.51601796E-06
  0.293000013      -3.74352993E-07
  0.294000000       7.83514736E-07
  0.294999987       1.91588015E-06
  0.296000004       2.98203895E-06
  0.296999991       3.94391645E-06
  0.298000008       4.76761579E-06
  0.298999995       5.42475937E-06
  0.300000012       5.89361980E-06
  0.300999999       6.15997214E-06
  0.301999986       6.21761637E-06
  0.303000003       6.06855792E-06
  0.303999990       5.72286581E-06
  0.305000007       5.19814648E-06
  0.305999994       4.51873575E-06
  0.307000011       3.71459078E-06
  0.307999998       2.81994789E-06
  0.308999985       1.87180137E-06
  0.310000002       9.08295590E-07
  0.310999990      -3.29412124E-08
  0.312000006      -9.16415843E-07
  0.312999994      -1.71027693E-06
  0.314000010      -2.38763687E-06
  0.314999998      -2.92767777E-06
  0.316000015      -3.31644537E-06
  0.317000002      -3.54733447E-06
  0.317999989      -3.62123433E-06
  0.319000006      -3.54632903E-06
  0.319999993      -3.33753587E-06
  0.321000010      -3.01567002E-06
  0.321999997      -2.60631214E-06
  0.323000014      -2.13846101E-06
  0.324000001      -1.64304606E-06
  0.324999988      -1.15134628E-06
  0.326000005      -6.93391598E-07
  0.326999992      -2.96456705E-07
  0.328000009       1.63392091E-08
  0.328999996       2.27189602E-07
  0.330000013       3.24539258E-07
  0.331000000       3.03677240E-07
  0.331999987       1.67005368E-07
  0.333000004      -7.60459002E-08
  0.333999991      -4.09445278E-07
  0.335000008      -8.11341749E-07
  0.335999995      -1.25512645E-06
  0.337000012      -1.71078943E-06
  0.338000000      -2.14636930E-06
  0.338999987      -2.52967243E-06
  0.340000004      -2.82986684E-06
  0.340999991      -3.01921023E-06
  0.342000008      -3.07450932E-06
  0.342999995      -2.97849147E-06
  0.344000012      -2.72088323E-06
  0.344999999      -2.29917782E-06
  0.345999986      -1.71905447E-06
  0.347000003      -9.94379661E-07
  0.347999990      -1.46893413E-07
  0.349000007       7.94551113E-07
  0.349999994       1.79508515E-06
  0.351000011       2.81520738E-06
  0.351999998       3.81247105E-06
  0.352999985       4.74328681E-06
  0.354000002       5.56487066E-06
  0.354999989       6.23720416E-06
  0.356000006       6.72488932E-06
  0.356999993       6.99889233E-06
  0.358000010       7.03799242E-06
  0.358999997       6.82996097E-06
  0.360000014       6.37233825E-06
  0.361000001       5.67285952E-06
  0.361999989       4.74932131E-06
  0.363000005       3.62917626E-06
  0.363999993       2.34854565E-06
  0.365000010       9.50928211E-07
  0.365999997      -5.14456474E-07
  0.367000014      -1.99460396E-06
  0.368000001      -3.43485794E-06
  0.368999988      -4.78113589E-06
  0.370000005      -5.98216229E-06
  0.370999992      -6.99162501E-06
  0.372000009      -7.77018158E-06
  0.372999996      -8.28708653E-06
  0.374000013      -8.52161611E-06
  0.375000000      -8.46397506E-06
  0.375999987      -8.11582686E-06
  0.377000004      -7.49027049E-06
  0.377999991      -6.61138984E-06
  0.379000008      -5.51335143E-06
  0.379999995      -4.23900838E-06
  0.381000012      -2.83816576E-06
  0.381999999      -1.36557367E-06
  0.382999986       1.21353182E-07
  0.384000003       1.56489148E-06
  0.384999990       2.90939511E-06
  0.386000007       4.10362281E-06
  0.386999995       5.10283189E-06
  0.388000011       5.87064005E-06
  0.388999999       6.38048323E-06
  0.389999986       6.61673312E-06
  0.391000003       6.57524834E-06
  0.391999990       6.26349083E-06
  0.393000007       5.70015573E-06
  0.393999994       4.91424908E-06
  0.395000011       3.94380095E-06
  0.395999998       2.83416284E-06
  0.397000015       1.63597838E-06
  0.398000002       4.02909080E-07
  0.398999989      -8.10615347E-07
  0.400000006      -1.95193456E-06
  0.400999993      -2.97230599E-06
  0.402000010      -3.82910457E-06
  0.402999997      -4.48761875E-06
  0.404000014      -4.92250774E-06
  0.405000001      -5.11888265E-06
  0.405999988      -5.07281038E-06
  0.407000005      -4.79148503E-06
  0.407999992      -4.29273450E-06
  0.409000009      -3.60412787E-06
  0.409999996      -2.76170294E-06
  0.411000013      -1.80818574E-06
  0.412000000      -7.91024263E-07
  0.412999988       2.39800386E-07
  0.414000005       1.23414645E-06
  0.414999992       2.14398779E-06
  0.416000009       2.92563436E-06
  0.416999996       3.54179565E-06
  0.418000013       3.96317955E-06
  0.419000000       4.16991634E-06
  0.419999987       4.15244085E-06
  0.421000004       3.91197136E-06
  0.421999991       3.46028628E-06
  0.423000008       2.81937491E-06
  0.423999995       2.02021192E-06
  0.425000012       1.10145311E-06
  0.425999999       1.07512498E-07
  0.426999986      -9.13412009E-07
  0.428000003      -1.91166600E-06
  0.428999990      -2.83844065E-06
  0.430000007      -3.64809057E-06
  0.430999994      -4.30026739E-06
  0.432000011      -4.76184141E-06
  0.432999998      -5.00855094E-06
  0.433999985      -5.02612238E-06
  0.435000002      -4.81105235E-06
  0.435999990      -4.37078597E-06
  0.437000006      -3.72358204E-06
  0.437999994      -2.89760260E-06
  0.439000010      -1.92973744E-06
  0.439999998      -8.63981654E-07
  0.441000015       2.50529894E-07
  0.442000002       1.36184167E-06
  0.442999989       2.41742396E-06
  0.444000006       3.36670973E-06
  0.444999993       4.16336570E-06
  0.446000010       4.76747709E-06
  0.446999997       5.14749763E-06
  0.448000014       5.28169403E-06
  0.449000001       5.15929833E-06
  0.449999988       4.78108177E-06
  0.451000005       4.15944260E-06
  0.451999992       3.31797810E-06
  0.453000009       2.29050193E-06
  0.453999996       1.11960583E-06
  0.455000013      -1.45107037E-07
  0.456000000      -1.44925741E-06
  0.456999987      -2.73607975E-06
  0.458000004      -3.94885865E-06
  0.458999991      -5.03366300E-06
  0.460000008      -5.94149606E-06
  0.460999995      -6.63079754E-06
  0.462000012      -7.06912488E-06
  0.463000000      -7.23479525E-06
  0.463999987      -7.11800249E-06
  0.465000004      -6.72109081E-06
  0.465999991      -6.05870036E-06
  0.467000008      -5.15717147E-06
  0.467999995      -4.05344372E-06
  0.469000012      -2.79346568E-06
  0.469999999      -1.43020998E-06
  0.470999986      -2.13890630E-08
  0.472000003       1.37314066E-06
  0.472999990       2.69390785E-06
  0.474000007       3.88455783E-06
  0.474999994       4.89425020E-06
  0.476000011       5.68002497E-06
  0.476999998       6.20861010E-06
  0.477999985       6.45798673E-06
  0.479000002       6.41835095E-06
  0.479999989       6.09254539E-06
  0.481000006       5.49604511E-06
  0.481999993       4.65606627E-06
  0.483000010       3.61059301E-06
  0.483999997       2.40654367E-06
  0.485000014       1.09773794E-06
  0.486000001      -2.57538858E-07
  0.486999989      -1.59916272E-06
  0.488000005      -2.86774616E-06
  0.488999993      -4.00744375E-06
  0.490000010      -4.96847133E-06
  0.490999997      -5.70918155E-06
  0.492000014      -6.19810271E-06
  0.493000001      -6.41524866E-06
  0.493999988      -6.35309607E-06
  0.495000005      -6.01689180E-06
  0.495999992      -5.42441330E-06
  0.497000009      -4.60512729E-06
  0.497999996      -3.59890396E-06
  0.499000013      -2.45423757E-06
  0.500000000      -1.22591507E-06
  0.500999987       2.74064451E-08
  0.501999974       1.24578128E-06
  0.503000021       2.37101335E-06
  0.504000008       3.34892115E-06
  0.504999995       4.13220414E-06
  0.505999982       4.68240887E-06
  0.507000029       4.97185920E-06
  0.508000016       4.98479858E-06
  0.509000003       4.71825797E-06
  0.509999990       4.18235322E-06
  0.510999978       3.39971916E-06
  0.512000024       2.40449685E-06
  0.513000011       1.24097312E-06
  0.513999999      -3.85113275E-08
  0.514999986      -1.37578991E-06
  0.515999973      -2.70966962E-06
  0.517000020      -3.97859458E-06
  0.518000007      -5.12354381E-06
  0.518999994      -6.09061863E-06
  0.519999981      -6.83364988E-06
  0.521000028      -7.31623140E-06
  0.522000015      -7.51367270E-06
  0.523000002      -7.41391023E-06
  0.523999989      -7.01830413E-06
  0.524999976      -6.34162370E-06
  0.526000023      -5.41152212E-06
  0.527000010      -4.26727183E-06
  0.527999997      -2.95813015E-06
  0.528999984      -1.54123359E-06
  0.529999971      -7.88578163E-08
  0.531000018       1.36409528E-06
  0.532000005       2.72322814E-06
  0.532999992       3.93732080E-06
  0.533999979       4.95144195E-06
  0.535000026       5.71901955E-06
  0.536000013       6.20446826E-06
  0.537000000       6.38441588E-06
  0.537999988       6.24913855E-06
  0.538999975       5.80286223E-06
  0.540000021       5.06380047E-06
  0.541000009       4.06348499E-06
  0.541999996       2.84501516E-06
  0.542999983       1.46181173E-06
  0.544000030      -2.53421870E-08
  0.545000017      -1.55047849E-06
  0.546000004      -3.04567970E-06
  0.546999991      -4.44408670E-06
  0.547999978      -5.68272026E-06
  0.549000025      -6.70544932E-06
  0.550000012      -7.46553224E-06
  0.550999999      -7.92779338E-06
  0.551999986      -8.07014112E-06
  0.552999973      -7.88464149E-06
  0.554000020      -7.37806658E-06
  0.555000007      -6.57149849E-06
  0.555999994      -5.49959896E-06
  0.556999981      -4.20907918E-06
  0.558000028      -2.75646721E-06
  0.559000015      -1.20608911E-06
  0.560000002       3.73178125E-07
  0.560999990       1.91086178E-06
  0.561999977       3.33780235E-06
  0.563000023       4.58966815E-06
  0.564000010       5.60925537E-06
  0.564999998       6.34965181E-06
  0.565999985       6.77570415E-06
  0.566999972       6.86662361E-06
  0.568000019       6.61563899E-06
  0.569000006       6.03148510E-06
  0.569999993       5.13747955E-06
  0.570999980       3.97058511E-06
  0.572000027       2.57995384E-06
  0.573000014       1.02467186E-06
  0.574000001      -6.28844532E-07
  0.574999988      -2.30975866E-06
  0.575999975      -3.94592826E-06
  0.577000022      -5.46717365E-06
  0.578000009      -6.80825315E-06
  0.578999996      -7.91200455E-06
  0.579999983      -8.73173849E-06
  0.580999970      -9.23329026E-06
  0.582000017      -9.39664551E-06
  0.583000004      -9.21672472E-06
  0.583999991      -8.70382974E-06
  0.584999979      -7.88267153E-06
  0.586000025      -6.79208051E-06
  0.587000012      -5.48235630E-06
  0.588000000      -4.01356647E-06
  0.588999987      -2.45267188E-06
  0.589999974      -8.70457825E-07
  0.591000021       6.61514832E-07
  0.592000008       2.07458356E-06
  0.592999995       3.30532339E-06
  0.593999982       4.29947204E-06
  0.595000029       5.01345403E-06
  0.596000016       5.41672034E-06
  0.597000003       5.49363904E-06
  0.597999990       5.24341340E-06
  0.598999977       4.68063990E-06
  0.600000024       3.83466249E-06
  0.601000011       2.74796025E-06
  0.601999998       1.47457035E-06
  0.602999985       7.72562530E-08
  0.603999972      -1.37497659E-06
  0.605000019      -2.81042344E-06
  0.606000006      -4.15783916E-06
  0.606999993      -5.34956553E-06
  0.607999980      -6.32513138E-06
  0.609000027      -7.03365004E-06
  0.610000014      -7.43668352E-06
  0.611000001      -7.50995241E-06
  0.611999989      -7.24436904E-06
  0.612999976      -6.64720847E-06
  0.614000022      -5.74141905E-06
  0.615000010      -4.56487669E-06
  0.615999997      -3.16880005E-06
  0.616999984      -1.61584217E-06
  0.617999971       2.29046879E-08
  0.619000018       1.67119686E-06
  0.620000005       3.25048131E-06
  0.620999992       4.68417966E-06
  0.621999979       5.90051877E-06
  0.623000026       6.83618282E-06
  0.624000013       7.43943428E-06
  0.625000000       7.67211532E-06
  0.625999987       7.51210655E-06
  0.626999974       6.95410154E-06
  0.628000021       6.01063584E-06
  0.629000008       4.71107978E-06
  0.629999995       3.10117662E-06
  0.630999982       1.24101257E-06
  0.632000029      -7.97106281E-07
  0.633000016      -2.93211883E-06
  0.634000003      -5.07719051E-06
  0.634999990      -7.14361249E-06
  0.635999978      -9.04443004E-06
  0.637000024      -1.06983907E-05
  0.638000011      -1.20331515E-05
  0.638999999      -1.29888904E-05
  0.639999986      -1.35209912E-05
  0.640999973      -1.36013005E-05
  0.642000020      -1.32204395E-05
  0.643000007      -1.23881782E-05
  0.643999994      -1.11324362E-05
  0.644999981      -9.49895912E-06
  0.646000028      -7.54963594E-06
  0.647000015      -5.35931258E-06
  0.648000002      -3.01330010E-06
  0.648999989      -6.03506237E-07
  0.649999976       1.77522656E-06
  0.651000023       4.02909245E-06
  0.652000010       6.06914682E-06
  0.652999997       7.81533890E-06
  0.653999984       9.19971535E-06
  0.654999971       1.01689220E-05
  0.656000018       1.06869675E-05
  0.657000005       1.07363221E-05
  0.657999992       1.03190796E-05
  0.658999979       9.45591091E-06
  0.660000026       8.18637182E-06
  0.661000013       6.56607517E-06
  0.662000000       4.66491565E-06
  0.662999988       2.56379849E-06
  0.663999975       3.50876576E-07
  0.665000021      -1.88097499E-06
  0.666000009      -4.04030334E-06
  0.666999996      -6.03872650E-06
  0.667999983      -7.79622223E-06
  0.669000030      -9.24365941E-06
  0.670000017      -1.03263756E-05
  0.671000004      -1.10053279E-05
  0.671999991      -1.12603657E-05
  0.672999978      -1.10890014E-05
  0.674000025      -1.05079662E-05
  0.675000012      -9.55098585E-06
  0.675999999      -8.26837550E-06
  0.676999986      -6.72362967E-06
  0.677999973      -4.99162525E-06
  0.679000020      -3.15400325E-06
  0.680000007      -1.29627188E-06
  0.680999994       4.96090649E-07
  0.681999981       2.14192187E-06
  0.683000028       3.56712508E-06
  0.684000015       4.70956866E-06
  0.685000002       5.51930952E-06
  0.685999990       5.96300015E-06
  0.686999977       6.02457840E-06
  0.688000023       5.70557177E-06
  0.689000010       5.02532203E-06
  0.689999998       4.01970328E-06
  0.690999985       2.73997807E-06
  0.691999972       1.24975941E-06
  0.693000019      -3.77309391E-07
  0.694000006      -2.06131563E-06
  0.694999993      -3.71971578E-06
  0.695999980      -5.27071870E-06
  0.697000027      -6.63818128E-06
  0.698000014      -7.75357512E-06
  0.699000001      -8.56005045E-06
  0.699999988      -9.01449675E-06
  0.700999975      -9.09068149E-06
  0.702000022      -8.77949697E-06
  0.703000009      -8.08900313E-06
  0.703999996      -7.04625654E-06
  0.704999983      -5.69341273E-06
  0.705999970      -4.08830329E-06
  0.707000017      -2.30010937E-06
  0.708000004      -4.07537499E-07
  0.708999991       1.50513756E-06
  0.709999979       3.35147502E-06
  0.711000025       5.04791888E-06
  0.712000012       6.51563778E-06
  0.713000000       7.68556856E-06
  0.713999987       8.50104061E-06
  0.714999974       8.92047501E-06
  0.716000021       8.91925629E-06
  0.717000008       8.49057506E-06
  0.717999995       7.64628112E-06
  0.718999982       6.41647830E-06
  0.720000029       4.84846578E-06
  0.721000016       3.00446254E-06
  0.722000003       9.59287490E-07
  0.722999990      -1.20410937E-06
  0.723999977      -3.39559369E-06
  0.725000024      -5.52389702E-06
  0.726000011      -7.50012532E-06
  0.726999998      -9.24080905E-06
  0.727999985      -1.06723373E-05
  0.728999972      -1.17340005E-05
  0.730000019      -1.23800310E-05
  0.731000006      -1.25820970E-05
  0.731999993      -1.23303998E-05
  0.732999980      -1.16349502E-05
  0.734000027      -1.05230874E-05
  0.735000014      -9.04061289E-06
  0.736000001      -7.24821894E-06
  0.736999989      -5.21964694E-06
  0.737999976      -3.03849060E-06
  0.739000022      -7.93709376E-07
  0.740000010       1.42267504E-06
  0.740999997       3.52056259E-06
  0.741999984       5.41556255E-06
  0.742999971       7.03239994E-06
  0.744000018       8.30846238E-06
  0.745000005       9.19555350E-06
  0.745999992       9.66267544E-06
  0.746999979       9.69690336E-06
  0.748000026       9.30458100E-06
  0.749000013       8.51005007E-06
  0.750000000       7.35441881E-06
  0.750999987       5.89469710E-06
  0.751999974       4.20013112E-06
  0.753000021       2.34958452E-06
  0.754000008       4.28015625E-07
  0.754999995      -1.47750632E-06
  0.755999982      -3.28116244E-06
  0.757000029      -4.90285311E-06
  0.758000016      -6.27124382E-06
  0.759000003      -7.32702529E-06
  0.759999990      -8.02540035E-06
  0.760999978      -8.33787544E-06
  0.762000024      -8.25368443E-06
  0.763000011      -7.78055619E-06
  0.763999999      -6.94292521E-06
  0.764999986      -5.78258141E-06
  0.765999973      -4.35506263E-06
  0.767000020      -2.72808757E-06
  0.768000007      -9.78600042E-07
  0.768999994       8.11487496E-07
  0.769999981       2.55870623E-06
  0.771000028       4.18130003E-06
  0.772000015       5.60354374E-06
  0.773000002       6.75906267E-06
  0.773999989       7.59360000E-06
  0.774999976       8.06714979E-06
  0.776000023       8.15738804E-06
  0.777000010       7.85757857E-06
  0.777999997       7.18056572E-06
  0.778999984       6.15575618E-06
  0.779999971       4.82819996E-06
  0.781000018       3.25740007E-06
  0.782000005       1.51432505E-06
  0.782999992      -3.22543741E-07
  0.783999979      -2.16897502E-06
  0.785000026      -3.94081235E-06
  0.786000013      -5.55622501E-06
  0.787000000      -6.93948141E-06
  0.787999988      -8.02482555E-06
  0.788999975      -8.76030663E-06
  0.790000021      -9.10734980E-06
  0.791000009      -9.04543776E-06
  0.791999996      -8.57126906E-06
  0.792999983      -7.69991220E-06
  0.794000030      -6.46399394E-06
  0.795000017      -4.91178753E-06
  0.796000004      -3.10585619E-06
  0.796999991      -1.11921872E-06
  0.797999978       9.65293793E-07
  0.799000025       3.06203128E-06
  0.800000012       5.08325002E-06
  0.800999999       6.94523123E-06
  0.801999986       8.57066243E-06
  0.802999973       9.89186901E-06
  0.804000020       1.08539880E-05
  0.805000007       1.14186068E-05
  0.805999994       1.15629564E-05
  0.806999981       1.12836815E-05
  0.808000028       1.05946692E-05
  0.809000015       9.52753726E-06
  0.810000002       8.13015049E-06
  0.810999990       6.46440003E-06
  0.811999977       4.60337515E-06
  0.813000023       2.62951244E-06
  0.814000010       6.28087491E-07
  0.814999998      -1.31361878E-06
  0.815999985      -3.11155623E-06
  0.816999972      -4.68754388E-06
  0.818000019      -5.97381268E-06
  0.819000006      -6.91605646E-06
  0.819999993      -7.47354397E-06
  0.820999980      -7.62383752E-06
  0.822000027      -7.36164384E-06
  0.823000014      -6.69878136E-06
  0.824000001      -5.66601238E-06
  0.824999988      -4.30852515E-06
  0.825999975      -2.68686244E-06
  0.827000022      -8.71062525E-07
  0.828000009       1.06006246E-06
  0.828999996       3.02199373E-06
  0.829999983       4.93193147E-06
  0.830999970       6.70740656E-06
  0.832000017       8.27414988E-06
  0.833000004       9.56654367E-06
  0.833999991       1.05319505E-05
  0.834999979       1.11322688E-05
  0.836000025       1.13460374E-05
  0.837000012       1.11691443E-05
  0.838000000       1.06151374E-05
  0.838999987       9.71366262E-06
  0.839999974       8.50965625E-06
  0.841000021       7.06231867E-06
  0.842000008       5.44115028E-06
  0.842999995       3.72195632E-06
  0.843999982       1.98663747E-06
  0.845000029       3.15400001E-07
  0.846000016      -1.21331254E-06
  0.847000003      -2.52879386E-06
  0.847999990      -3.56973123E-06
  0.848999977      -4.28685644E-06
  0.850000024      -4.64730010E-06
  0.851000011      -4.63275001E-06
  0.851999998      -4.24322525E-06
  0.852999985      -3.49474385E-06
  0.853999972      -2.42116880E-06
  0.855000019      -1.07009998E-06
  0.856000006       4.98375016E-07