   0.00000000       0.00000000    
   1.00000005E-03   0.00000000    
   2.00000009E-03   0.00000000    
   3.00000003E-03   0.00000000    
   4.00000019E-03   0.00000000    
   4.99999989E-03   0.00000000    
   6.00000005E-03   0.00000000    
   7.00000022E-03   0.00000000    
   8.00000038E-03   0.00000000    
   8.99999961E-03   0.00000000    
   9.99999978E-03   0.00000000    
   1.09999999E-02   0.00000000    
   1.20000001E-02   0.00000000    
   1.30000003E-02   0.00000000    
   1.40000004E-02  -3.40211137E-38
   1.49999997E-02  -6.04926467E-37
   1.60000008E-02  -3.03790494E-36
   1.70000009E-02  -9.66981139E-36
   1.79999992E-02  -2.62422255E-35
   1.89999994E-02  -6.21522664E-35
   1.99999996E-02  -1.35793073E-34
   2.09999997E-02  -2.68207128E-34
   2.19999999E-02  -4.56628816E-34
   2.30000000E-02  -6.18771318E-34
   2.40000002E-02  -4.34741616E-34
   2.50000004E-02   1.00535514E-33
   2.60000005E-02   5.91515847E-33
   2.70000007E-02   1.91697003E-32
   2.80000009E-02   5.07360348E-32
   2.89999992E-02   1.19816858E-31
   2.99999993E-02   2.61587037E-31
   3.09999995E-02   5.37663875E-31
   3.20000015E-02   1.05168245E-30
   3.29999998E-02   1.97145129E-30
   3.40000018E-02   3.55900531E-30
   3.50000001E-02   6.20925757E-30
   3.59999985E-02   1.04966063E-29
   3.70000005E-02   1.72264999E-29
   3.79999988E-02   2.74851930E-29
   3.90000008E-02   4.26754749E-29
   3.99999991E-02   6.45187314E-29
   4.10000011E-02   9.49942075E-29
   4.19999994E-02   1.36175092E-28
   4.30000015E-02   1.89908669E-28
   4.39999998E-02   2.57275616E-28
   4.50000018E-02   3.37754258E-28
   4.60000001E-02   4.28011063E-28
   4.69999984E-02   5.20244908E-28
   4.80000004E-02   6.00034067E-28
   4.89999987E-02   6.43676843E-28
   5.00000007E-02   6.15087376E-28
   5.09999990E-02   4.62413372E-28
   5.20000011E-02   1.14686817E-28
   5.29999994E-02  -5.20994480E-28
   5.40000014E-02  -1.56102929E-27
   5.49999997E-02  -3.14463357E-27
   5.60000017E-02  -5.42965565E-27
   5.70000000E-02  -8.58335592E-27
   5.79999983E-02  -1.27663995E-26
   5.90000004E-02  -1.81081881E-26
   5.99999987E-02  -2.46717018E-26
   6.10000007E-02  -3.24063043E-26
   6.19999990E-02  -4.10875583E-26
   6.30000010E-02  -5.02441658E-26
   6.40000030E-02  -5.90735716E-26
   6.49999976E-02  -6.63499259E-26
   6.59999996E-02  -7.03306968E-26
   6.70000017E-02  -6.86714635E-26
   6.80000037E-02  -5.83621238E-26
   6.89999983E-02  -3.57017738E-26
   7.00000003E-02   3.66650685E-27
   7.10000023E-02   6.46359777E-26
   7.19999969E-02   1.52403958E-25
   7.29999989E-02   2.72097996E-25
   7.40000010E-02   4.28232452E-25
   7.50000030E-02   6.23972065E-25
   7.59999976E-02   8.60186651E-25
   7.69999996E-02   1.13429471E-24
   7.80000016E-02   1.43891227E-24
   7.90000036E-02   1.76034705E-24
   7.99999982E-02   2.07701002E-24
   8.10000002E-02   2.35785180E-24
   8.20000023E-02   2.56097244E-24
   8.29999968E-02   2.63259707E-24
   8.39999989E-02   2.50665306E-24
   8.50000009E-02   2.10522383E-24
   8.60000029E-02   1.34018711E-24
   8.69999975E-02   1.16359449E-25
   8.79999995E-02  -1.66353252E-24
   8.90000015E-02  -4.09176511E-24
   9.00000036E-02  -7.24619386E-24
   9.09999982E-02  -1.11783744E-23
   9.20000002E-02  -1.58992707E-23
   9.30000022E-02  -2.13627825E-23
   9.39999968E-02  -2.74475948E-23
   9.49999988E-02  -3.39381277E-23
   9.60000008E-02  -4.05057324E-23
   9.70000029E-02  -4.66916357E-23
   9.79999974E-02  -5.18934665E-23
   9.89999995E-02  -5.53576261E-23
  0.100000001      -5.61800042E-23
  0.101000004      -5.33177644E-23
  0.101999998      -4.56150457E-23
  0.103000000      -3.18452545E-23
  0.104000002      -1.07723627E-23
  0.104999997       1.87669820E-23
  0.105999999       5.77596382E-23
  0.107000001       1.06890766E-22
  0.108000003       1.66399076E-22
  0.108999997       2.35916364E-22
  0.109999999       3.14297255E-22
  0.111000001       3.99447507E-22
  0.112000003       4.88161769E-22
  0.112999998       5.75984581E-22
  0.114000000       6.57109421E-22
  0.115000002       7.24334809E-22
  0.115999997       7.69095408E-22
  0.116999999       7.81588289E-22
  0.118000001       7.51012747E-22
  0.119000003       6.65940725E-22
  0.119999997       5.14830620E-22
  0.120999999       2.86692172E-22
  0.122000001      -2.80971176E-23
  0.123000003      -4.36833859E-22
  0.123999998      -9.43408475E-22
  0.125000000      -1.54713541E-21
  0.126000002      -2.24154152E-21
  0.127000004      -3.01317259E-21
  0.128000006      -3.84049336E-21
  0.128999993      -4.69297084E-21
  0.129999995      -5.53043789E-21
  0.130999997      -6.30284727E-21
  0.131999999      -6.95052323E-21
  0.133000001      -7.40502263E-21
  0.134000003      -7.59069963E-21
  0.135000005      -7.42705681E-21
  0.136000007      -6.83193913E-21
  0.136999995      -5.72558789E-21
  0.137999997      -4.03552987E-21
  0.138999999      -1.70222441E-21
  0.140000001       1.31466909E-21
  0.141000003       5.02961032E-21
  0.142000005       9.42434983E-21
  0.143000007       1.44412972E-20
  0.143999994       1.99774942E-20
  0.144999996       2.58796315E-20
  0.145999998       3.19406294E-20
  0.147000000       3.78982814E-20
  0.148000002       4.34364850E-20
  0.149000004       4.81895359E-20
  0.150000006       5.17498893E-20
  0.150999993       5.36797243E-20
  0.151999995       5.35264665E-20
  0.152999997       5.08422557E-20
  0.153999999       4.52071653E-20
  0.155000001       3.62556914E-20
  0.156000003       2.37057976E-20
  0.157000005       7.38953157E-21
  0.158000007      -1.27160844E-20
  0.158999994      -3.64593975E-20
  0.159999996      -6.34874626E-20
  0.160999998      -9.32243019E-20
  0.162000000      -1.24856089E-19
  0.163000003      -1.57325332E-19
  0.164000005      -1.89335955E-19
  0.165000007      -2.19371013E-19
  0.165999994      -2.45724444E-19
  0.166999996      -2.66547734E-19
  0.167999998      -2.79911664E-19
  0.169000000      -2.83882906E-19
  0.170000002      -2.76613979E-19
  0.171000004      -2.56444369E-19
  0.172000006      -2.22009822E-19
  0.172999993      -1.72355307E-19
  0.173999995      -1.07047059E-19
  0.174999997      -2.62774504E-20
  0.175999999       6.90432923E-20
  0.177000001       1.77215640E-19
  0.178000003       2.95706212E-19
  0.179000005       4.21136830E-19
  0.180000007       5.49312964E-19
  0.180999994       6.75296190E-19
  0.181999996       7.93523978E-19
  0.182999998       8.97978277E-19
  0.184000000       9.82401261E-19
  0.185000002       1.04055454E-18
  0.186000004       1.06651529E-18
  0.187000006       1.05499991E-18
  0.187999994       1.00170125E-18
  0.188999996       9.03625336E-19
  0.189999998       7.59409240E-19
  0.191000000       5.69599723E-19
  0.192000002       3.36873595E-19
  0.193000004       6.61780550E-20
  0.194000006      -2.35227936E-19
  0.194999993      -5.57848434E-19
  0.195999995      -8.90154700E-19
  0.196999997      -1.21892694E-18
  0.197999999      -1.52973582E-18
  0.199000001      -1.80755818E-18
  0.200000003      -2.03751315E-18
  0.201000005      -2.20569447E-18
  0.202000007      -2.30006958E-18
  0.202999994      -2.31140216E-18
  0.203999996      -2.23414949E-18
  0.204999998      -2.06727986E-18
  0.206000000      -1.81494883E-18
  0.207000002      -1.48697141E-18
  0.208000004      -1.09903021E-18
  0.209000006      -6.72561169E-19
  0.209999993      -2.34269466E-19
  0.210999995       1.84759010E-19
  0.211999997       5.50369790E-19
  0.213000000       8.27072562E-19
  0.214000002       9.80166943E-19
  0.215000004       9.78207456E-19
  0.216000006       7.95725209E-19
  0.216999993       4.16092709E-19
  0.217999995      -1.65607142E-19
  0.218999997      -9.39874665E-19
  0.219999999      -1.88043506E-18
  0.221000001      -2.94242992E-18
  0.222000003      -4.06136292E-18
  0.223000005      -5.15300476E-18
  0.224000007      -6.11444009E-18
  0.224999994      -6.82641802E-18
  0.225999996      -7.15711738E-18
  0.226999998      -6.96739028E-18
  0.228000000      -6.11747295E-18
  0.229000002      -4.47508144E-18
  0.230000004      -1.92470825E-18
  0.231000006       1.62214513E-18
  0.231999993       6.21617131E-18
  0.232999995       1.18593621E-17
  0.233999997       1.84945574E-17
  0.234999999       2.59960814E-17
  0.236000001       3.41621292E-17
  0.237000003       4.27096247E-17
  0.238000005       5.12722741E-17
  0.238999993       5.94024735E-17
  0.239999995       6.65776962E-17
  0.240999997       7.22118153E-17
  0.241999999       7.56717199E-17
  0.243000001       7.62993581E-17
  0.244000003       7.34390535E-17
  0.245000005       6.64697326E-17
  0.246000007       5.48413798E-17
  0.246999994       3.81146926E-17
  0.247999996       1.60026130E-17
  0.248999998      -1.15878855E-17
  0.250000000      -4.45156743E-17
  0.250999987      -8.23691565E-17
  0.252000004      -1.24436088E-16
  0.252999991      -1.69681928E-16
  0.254000008      -2.16739174E-16
  0.254999995      -2.63909844E-16
  0.256000012      -3.09183305E-16
  0.256999999      -3.50270941E-16
  0.257999986      -3.84658943E-16
  0.259000003      -4.09679873E-16
  0.259999990      -4.22602340E-16
  0.261000007      -4.20738232E-16
  0.261999995      -4.01565218E-16
  0.263000011      -3.62861556E-16
  0.263999999      -3.02849272E-16
  0.264999986      -2.20340732E-16
  0.266000003      -1.14882893E-16
  0.266999990       1.31073584E-17
  0.268000007       1.62224041E-16
  0.268999994       3.29976402E-16
  0.270000011       5.12724395E-16
  0.270999998       7.05652137E-16
  0.272000015       9.02787091E-16
  0.273000002       1.09706903E-15
  0.273999989       1.28047495E-15
  0.275000006       1.44420070E-15
  0.275999993       1.57890160E-15
  0.277000010       1.67498902E-15
  0.277999997       1.72297894E-15
  0.279000014       1.71388509E-15
  0.280000001       1.63964710E-15
  0.280999988       1.49358008E-15
  0.282000005       1.27083085E-15
  0.282999992       9.68823050E-16
  0.284000009       5.87670982E-16
  0.284999996       1.30542441E-16
  0.286000013      -3.96052145E-16
  0.287000000      -9.82064610E-16
  0.287999988      -1.61382795E-15
  0.289000005      -2.27410770E-15
  0.289999992      -2.94229960E-15
  0.291000009      -3.59478538E-15
  0.291999996      -4.20545209E-15
  0.293000013      -4.74637241E-15
  0.294000000      -5.18864389E-15
  0.294999987      -5.50336830E-15
  0.296000004      -5.66275195E-15
  0.296999991      -5.64129872E-15
  0.298000008      -5.41705988E-15
  0.298999995      -4.97289698E-15
  0.300000012      -4.29771219E-15
  0.300999999      -3.38759286E-15
  0.301999986      -2.24681546E-15
  0.303000003      -8.88655299E-16
  0.303999990       6.64054243E-16
  0.305000007       2.37866122E-15
  0.305999994       4.21277893E-15
  0.307000011       6.11474863E-15
  0.307999998       8.02450639E-15
  0.308999985       9.87486511E-15
  0.310000002       1.15932095E-14
  0.310999990       1.31035802E-14
  0.312000006       1.43291208E-14
  0.312999994       1.51948173E-14
  0.314000010       1.56304684E-14
  0.314999998       1.55737917E-14
  0.316000015       1.49735706E-14
  0.317000002       1.37927169E-14
  0.317999989       1.20111254E-14
  0.319000006       9.62819471E-15
  0.319999993       6.66488129E-15
  0.321000010       3.16516159E-15
  0.321999997      -8.03212333E-16
  0.323000014      -5.14876516E-15
  0.324000001      -9.75723933E-15
  0.324999988      -1.44934740E-14
  0.326000005      -1.92042461E-14
  0.326999992      -2.37220623E-14
  0.328000009      -2.78698522E-14
  0.328999996      -3.14664676E-14
  0.330000013      -3.43328779E-14
  0.331000000      -3.62988617E-14
  0.331999987      -3.72100422E-14
  0.333000004      -3.69349733E-14
  0.333999991      -3.53720654E-14
  0.335000008      -3.24560664E-14
  0.335999995      -2.81638015E-14
  0.337000012      -2.25188876E-14
  0.338000000      -1.55951708E-14
  0.338999987      -7.51863629E-15
  0.340000004       1.53243422E-15
  0.340999991       1.13291944E-14
  0.342000008       2.15959825E-14
  0.342999995       3.20161175E-14
  0.344000012       4.22396967E-14
  0.344999999       5.18933007E-14
  0.345999986       6.05914041E-14
  0.347000003       6.79492134E-14
  0.347999990       7.35965650E-14
  0.349000007       7.71924977E-14
  0.349999994       7.84399875E-14
  0.351000011       7.71003134E-14
  0.351999998       7.30065016E-14
  0.352999985       6.60752784E-14
  0.354000002       5.63169642E-14
  0.354999989       4.38427642E-14
  0.356000006       2.88689970E-14
  0.356999993       1.17178385E-14
  0.358000010      -7.18573286E-15
  0.358999997      -2.73209461E-14
  0.360000014      -4.80822996E-14
  0.361000001      -6.87945659E-14
  0.361999989      -8.87314988E-14
  0.363000005      -1.07137836E-13
  0.363999993      -1.23254095E-13
  0.365000010      -1.36343383E-13
  0.365999997      -1.45719455E-13
  0.367000014      -1.50775090E-13
  0.368000001      -1.51009698E-13
  0.368999988      -1.46055192E-13
  0.370000005      -1.35698974E-13
  0.370999992      -1.19903002E-13
  0.372000009      -9.88179875E-14
  0.372999996      -7.27917753E-14
  0.374000013      -4.23712579E-14
  0.375000000      -8.29724507E-15
  0.375999987       2.85080153E-14
  0.377000004       6.69607327E-14
  0.377999991       1.05842669E-13
  0.379000008       1.43834963E-13
  0.379999995       1.79557920E-13
  0.381000012       2.11615718E-13
  0.381999999       2.38644770E-13
  0.382999986       2.59364199E-13
  0.384000003       2.72626729E-13
  0.384999990       2.77468180E-13
  0.386000007       2.73153760E-13
  0.386999995       2.59219078E-13
  0.388000011       2.35504324E-13
  0.388999999       2.02179609E-13
  0.389999986       1.59760253E-13
  0.391000003       1.09110664E-13
  0.391999990       5.14360418E-14
  0.393000007      -1.17386027E-14
  0.393999994      -7.86021164E-14
  0.395000011      -1.47103141E-13
  0.395999998      -2.15007415E-13
  0.397000015      -2.79964989E-13
  0.398000002      -3.39585619E-13
  0.398999989      -3.91520068E-13
  0.400000006      -4.33544639E-13
  0.400999993      -4.63646211E-13
  0.402000010      -4.80104617E-13
  0.402999997      -4.81569537E-13
  0.404000014      -4.67128235E-13
  0.405000001      -4.36361857E-13
  0.405999988      -3.89387172E-13
  0.407000005      -3.26881588E-13
  0.407999992      -2.50089798E-13
  0.409000009      -1.60810587E-13
  0.409999996      -6.13633696E-14
  0.411000013       4.54654726E-14
  0.412000000       1.56495503E-13
  0.412999988       2.68242758E-13
  0.414000005       3.77025613E-13
  0.414999992       4.79082702E-13
  0.416000009       5.70699521E-13
  0.416999996       6.48339563E-13
  0.418000013       7.08774944E-13
  0.419000000       7.49212866E-13
  0.419999987       7.67411850E-13
  0.421000004       7.61784082E-13
  0.421999991       7.31479005E-13
  0.423000008       6.76444632E-13
  0.423999995       5.97463160E-13
  0.425000012       4.96158399E-13
  0.425999999       3.74973842E-13
  0.426999986       2.37120653E-13
  0.428000003       8.64961992E-14
  0.428999990      -7.24248271E-14
  0.430000007      -2.34724268E-13
  0.430999994      -3.95195161E-13
  0.432000011      -5.48512462E-13
  0.432999998      -6.89414454E-13
  0.433999985      -8.12888114E-13
  0.435000002      -9.14352578E-13
  0.435999990      -9.89832999E-13
  0.437000006      -1.03611889E-12
  0.437999994      -1.05090004E-12
  0.439000010      -1.03287463E-12
  0.439999998      -9.81824431E-13
  0.441000015      -8.98652897E-13
  0.442000002      -7.85384073E-13
  0.442999989      -6.45120892E-13
  0.444000006      -4.81963048E-13
  0.444999993      -3.00886161E-13
  0.446000010      -1.07585707E-13
  0.446999997       9.17093753E-14
  0.448000014       2.90447571E-13
  0.449000001       4.81982726E-13
  0.449999988       6.59811073E-13
  0.451000005       8.17808440E-13
  0.451999992       9.50458896E-13
  0.453000009       1.05306551E-12
  0.453999996       1.12193523E-12
  0.455000013       1.15452971E-12
  0.456000000       1.14957577E-12
  0.456999987       1.10712969E-12
  0.458000004       1.02859258E-12
  0.458999991       9.16674505E-13
  0.460000008       7.75307824E-13
  0.460999995       6.09511898E-13
  0.462000012       4.25213548E-13
  0.463000000       2.29029550E-13
  0.463999987       2.80189419E-14
  0.465000004      -1.70585592E-13
  0.465999991      -3.59656803E-13
  0.467000008      -5.32451253E-13
  0.467999995      -6.82875739E-13
  0.469000012      -8.05730428E-13
  0.469999999      -8.96918390E-13
  0.470999986      -9.53612081E-13
  0.472000003      -9.74369023E-13
  0.472999990      -9.59190843E-13
  0.474000007      -9.09522024E-13
  0.474999994      -8.28187670E-13
  0.476000011      -7.19270834E-13
  0.476999998      -5.87934703E-13
  0.477999985      -4.40195623E-13
  0.479000002      -2.82656168E-13
  0.479999989      -1.22209155E-13
  0.481000006       3.42744970E-14
  0.481999993       1.80260510E-13
  0.483000010       3.09854139E-13
  0.483999997       4.18077194E-13
  0.485000014       5.01105559E-13
  0.486000001       5.56454893E-13
  0.486999989       5.83104474E-13
  0.488000005       5.81551625E-13
  0.488999993       5.53791442E-13
  0.490000010       5.03220566E-13
  0.490999997       4.34467051E-13
  0.492000014       3.53151726E-13
  0.493000001       2.65590203E-13
  0.493999988       1.78447643E-13
  0.495000005       9.83612199E-14
  0.495999992       3.15481013E-14
  0.497000009      -1.65826046E-14
  0.497999996      -4.17939236E-14
  0.499000013      -4.13416961E-14
  0.500000000      -1.42329470E-14
  0.500999987       3.85947513E-14
  0.501999974       1.14186818E-13
  0.503000021       2.07588585E-13
  0.504000008       3.11971992E-13
  0.504999995       4.18872836E-13
  0.505999982       5.18535193E-13
  0.507000029       6.00353643E-13
  0.508000016       6.53398884E-13
  0.509000003       6.67007085E-13
  0.509999990       6.31409638E-13
  0.510999978       5.38375876E-13
  0.512000024       3.81838712E-13
  0.513000011       1.58471489E-13
  0.513999999      -1.31814427E-13
  0.514999986      -4.85482422E-13
  0.515999973      -8.95121217E-13
  0.517000020      -1.34935617E-12
  0.518000007      -1.83293962E-12
  0.518999994      -2.32703093E-12
  0.519999981      -2.80967177E-12
  0.521000028      -3.25645023E-12
  0.522000015      -3.64134157E-12
  0.523000002      -3.93770390E-12
  0.523999989      -4.11939710E-12
  0.524999976      -4.16198933E-12
  0.526000023      -4.04400645E-12
  0.527000010      -3.74817148E-12
  0.527999997      -3.26258378E-12
  0.528999984      -2.58178201E-12
  0.529999971      -1.70763729E-12
  0.531000018      -6.50024305E-13
  0.532000005       5.72774792E-13
  0.532999992       1.93397230E-12
  0.533999979       3.39851281E-12
  0.535000026       4.92366174E-12
  0.536000013       6.45995193E-12
  0.537000000       7.95247635E-12
  0.537999988       9.34250507E-12
  0.538999975       1.05693856E-11
  0.540000021       1.15726751E-11
  0.541000009       1.22944380E-11
  0.541999996       1.26816344E-11
  0.542999983       1.26885082E-11
  0.544000030       1.22788906E-11
  0.545000017       1.14283192E-11
  0.546000004       1.01258793E-11
  0.546999991       8.37568036E-12
  0.547999978       6.19788335E-12
  0.549000025       3.62921151E-12
  0.550000012       7.22887570E-13
  0.550999999      -2.45203770E-12
  0.551999986      -5.81197937E-12
  0.552999973      -9.26073454E-12
  0.554000020      -1.26919794E-11
  0.555000007      -1.59923047E-11
  0.555999994      -1.90447033E-11
  0.556999981      -2.17324179E-11
  0.558000028      -2.39430229E-11
  0.559000015      -2.55726083E-11
  0.560000002      -2.65299258E-11
  0.560999990      -2.67403426E-11
  0.561999977      -2.61494350E-11
  0.563000023      -2.47260962E-11
  0.564000010      -2.24649951E-11
  0.564999998      -1.93882705E-11
  0.565999985      -1.55463663E-11
  0.566999972      -1.10179157E-11
  0.568000019      -5.90862949E-12
  0.569000006      -3.49182272E-13
  0.569999993       5.50788321E-12
  0.570999980       1.14921839E-11
  0.572000027       1.74203499E-11
  0.573000014       2.31015762E-11
  0.574000001       2.83437267E-11
  0.574999988       3.29597669E-11
  0.575999975       3.67743544E-11
  0.577000022       3.96303337E-11
  0.578000009       4.13949118E-11
  0.578999996       4.19652889E-11
  0.579999983       4.12734985E-11
  0.580999970       3.92902794E-11
  0.582000017       3.60277745E-11
  0.583000004       3.15409192E-11
  0.583999991       2.59274286E-11
  0.584999979       1.93262784E-11
  0.586000025       1.19147218E-11
  0.587000012       3.90384556E-12
  0.588000000      -4.46722043E-12
  0.588999987      -1.29383049E-11
  0.589999974      -2.12362038E-11
  0.591000021      -2.90834579E-11
  0.592000008      -3.62076306E-11
  0.592999995      -4.23507757E-11
  0.593999982      -4.72787642E-11
  0.595000029      -5.07901395E-11
  0.596000016      -5.27242035E-11
  0.597000003      -5.29679668E-11
  0.597999990      -5.14617307E-11
  0.598999977      -4.82030180E-11
  0.600000024      -4.32486755E-11
  0.601000011      -3.67149922E-11
  0.601999998      -2.87757856E-11
  0.602999985      -1.96584173E-11
  0.603999972      -9.63782006E-12
  0.605000019       9.71318078E-13
  0.606000006       1.18240140E-11
  0.606999993       2.25558097E-11
  0.607999980       3.27946385E-11
  0.609000027       4.21733343E-11
  0.610000014       5.03423934E-11
  0.611000001       5.69825333E-11
  0.611999989       6.18166074E-11
  0.612999976       6.46204618E-11
  0.614000022       6.52322849E-11
  0.615000010       6.35601155E-11
  0.615999997       5.95871824E-11
  0.616999984       5.33747942E-11
  0.617999971       4.50626272E-11
  0.619000018       3.48663667E-11
  0.620000005       2.30726150E-11
  0.620999992       1.00312553E-11
  0.621999979      -3.85461281E-12
  0.623000026      -1.81408256E-11
  0.624000013      -3.23560657E-11
  0.625000000      -4.60170894E-11
  0.625999987      -5.86447765E-11
  0.626999974      -6.97804869E-11
  0.628000021      -7.90021104E-11
  0.629000008      -8.59393459E-11
  0.629999995      -9.02875760E-11
  0.630999982      -9.18198365E-11
  0.632000029      -9.03964681E-11
  0.633000016      -8.59720281E-11
  0.634000003      -7.85991411E-11
  0.634999990      -6.84291235E-11
  0.635999978      -5.57092879E-11
  0.637000024      -4.07768992E-11
  0.638000011      -2.40499530E-11
  0.638999999      -6.01503222E-12
  0.639999986       1.27874187E-11
  0.640999973       3.17799467E-11
  0.642000020       5.03665235E-11
  0.643000007       6.79519635E-11
  0.643999994       8.39616848E-11
  0.644999981       9.78611081E-11
  0.646000028       1.09174079E-10
  0.647000015       1.17499593E-10
  0.648000002       1.22526281E-10
  0.648999989       1.24044053E-10
  0.649999976       1.21952531E-10
  0.651000023       1.16265893E-10
  0.652000010       1.07113859E-10
  0.652999997       9.47388279E-11
  0.653999984       7.94891375E-11
  0.654999971       6.18086346E-11
  0.656000018       4.22228849E-11
  0.657000005       2.13224612E-11
  0.657999992      -2.56165748E-13
  0.658999979      -2.18515032E-11
  0.660000026      -4.27989554E-11
  0.661000013      -6.24530289E-11
  0.662000000      -8.02091032E-11
  0.662999988      -9.55239568E-11
  0.663999975      -1.07934314E-10
  0.665000021      -1.17072810E-10
  0.666000009      -1.22680699E-10
  0.666999996      -1.24616928E-10
  0.667999983      -1.22863136E-10
  0.669000030      -1.17524421E-10
  0.670000017      -1.08825809E-10
  0.671000004      -9.71045258E-11
  0.671999991      -8.27982405E-11
  0.672999978      -6.64297992E-11
  0.674000025      -4.85887962E-11
  0.675000012      -2.99107926E-11
  0.675999999      -1.10547743E-11
  0.676999986       7.32029801E-12
  0.677999973       2.45790298E-11
  0.679000020       4.01323766E-11
  0.680000007       5.34588519E-11
  0.680999994       6.41233733E-11
  0.681999981       7.17930854E-11
  0.683000028       7.62495206E-11
  0.684000015       7.73966516E-11
  0.685000002       7.52645446E-11
  0.685999990       7.00084019E-11
  0.686999977       6.19030313E-11
  0.688000023       5.13328928E-11
  0.689000010       3.87780537E-11
  0.689999998       2.47965398E-11
  0.690999985       1.00036845E-11
  0.691999972      -4.95077677E-12
  0.693000019      -1.94070645E-11
  0.694000006      -3.27202813E-11
  0.694999993      -4.42849993E-11
  0.695999980      -5.35586089E-11
  0.697000027      -6.00825778E-11
  0.698000014      -6.35007880E-11
  0.699000001      -6.35743125E-11
  0.699999988      -6.01919972E-11
  0.700999975      -5.33764664E-11
  0.702000022      -4.32852712E-11
  0.703000009      -3.02070972E-11
  0.703999996      -1.45531105E-11
  0.704999983       3.15628079E-12
  0.705999970       2.23088180E-11
  0.707000017       4.22213410E-11
  0.708000004       6.21635868E-11
  0.708999991       8.13839898E-11
  0.709999979       9.91365878E-11
  0.711000025       1.14708056E-10
  0.712000012       1.27443917E-10
  0.713000000       1.36772926E-10
  0.713999987       1.42228881E-10
  0.714999974       1.43468820E-10
  0.716000021       1.40287129E-10
  0.717000008       1.32624967E-10
  0.717999995       1.20574523E-10
  0.718999982       1.04378062E-10
  0.720000029       8.44216502E-11
  0.721000016       6.12237830E-11
  0.722000003       3.54192786E-11
  0.722999990       7.73893623E-12
  0.723999977      -2.10142858E-11
  0.725000024      -4.99918128E-11
  0.726000011      -7.83277748E-11
  0.726999998      -1.05168083E-10
  0.727999985      -1.29699321E-10
  0.728999972      -1.51176294E-10
  0.730000019      -1.68947425E-10
  0.731000006      -1.82476978E-10
  0.731999993      -1.91363328E-10
  0.732999980      -1.95352651E-10
  0.734000027      -1.94347469E-10
  0.735000014      -1.88409871E-10
  0.736000001      -1.77759113E-10
  0.736999989      -1.62763775E-10
  0.737999976      -1.43928716E-10
  0.739000022      -1.21877258E-10
  0.740000010      -9.73292905E-11
  0.740999997      -7.10759784E-11
  0.741999984      -4.39520469E-11
  0.742999971      -1.68065787E-11
  0.744000018       9.52660086E-12
  0.745000005       3.42578986E-11
  0.745999992       5.66692457E-11
  0.746999979       7.61387481E-11
  0.748000026       9.21617851E-11
  0.749000013       1.04367771E-10
  0.750000000       1.12532025E-10
  0.750999987       1.16582258E-10
  0.751999974       1.16599480E-10
  0.753000021       1.12813280E-10
  0.754000008       1.05591577E-10
  0.754999995       9.54253621E-11
  0.755999982       8.29088256E-11
  0.757000029       6.87156720E-11
  0.758000016       5.35724763E-11
  0.759000003       3.82300511E-11
  0.759999990       2.34338798E-11
  0.760999978       9.89471526E-12
  0.762000024      -1.73956379E-12
  0.763000011      -1.09097679E-11
  0.763999999      -1.71679372E-11
  0.764999986      -2.01957045E-11
  0.765999973      -1.98177846E-11
  0.767000020      -1.60100457E-11
  0.768000007      -8.90178729E-12
  0.768999994       1.22788151E-12
  0.769999981       1.39595089E-11
  0.771000028       2.87483336E-11
  0.772000015       4.49443295E-11
  0.773000002       6.18166629E-11
  0.773999989       7.85816204E-11
  0.774999976       9.44330100E-11
  0.776000023       1.08573997E-10
  0.777000010       1.20249144E-10
  0.777999997       1.28775421E-10
  0.778999984       1.33571154E-10
  0.779999971       1.34181555E-10
  0.781000018       1.30300021E-10
  0.782000005       1.21784263E-10
  0.782999992       1.08666492E-10
  0.783999979       9.11571790E-11
  0.785000026       6.96422225E-11
  0.786000013       4.46733241E-11
  0.787000000       1.69518913E-11
  0.787999988      -1.26931599E-11
  0.788999975      -4.33329692E-11
  0.790000021      -7.39708156E-11
  0.791000009      -1.03577626E-10
  0.791999996      -1.31129677E-10
  0.792999983      -1.55647190E-10
  0.794000030      -1.76232348E-10
  0.795000017      -1.92105484E-10
  0.796000004      -2.02637809E-10
  0.796999991      -2.07379586E-10
  0.797999978      -2.06082484E-10
  0.799000025      -1.98715197E-10
  0.800000012      -1.85471416E-10
  0.800999999      -1.66769779E-10
  0.801999986      -1.43245416E-10
  0.802999973      -1.15733201E-10
  0.804000020      -8.52430695E-11
  0.805000007      -5.29279259E-11
  0.805999994      -2.00451322E-11
  0.806999981       1.20872357E-11
  0.808000028       4.21380257E-11
  0.809000015       6.88129415E-11
  0.810000002       9.09050266E-11
  0.810999990       1.07343918E-10
  0.811999977       1.17242077E-10
  0.813000023       1.19936214E-10
  0.814000010       1.15022200E-10
  0.814999998       1.02382006E-10
  0.815999985       8.22013985E-11
  0.816999972       5.49773629E-11
  0.818000019       2.15145887E-11
  0.819000006      -1.70893317E-11
  0.819999993      -5.94699012E-11
  0.820999980      -1.04032484E-10
  0.822000027      -1.48999035E-10
  0.823000014      -1.92463476E-10
  0.824000001      -2.32454375E-10
  0.824999988      -2.67002809E-10
  0.825999975      -2.94213404E-10
  0.827000022      -3.12336296E-10
  0.828000009      -3.19837462E-10
  0.828999996      -3.15464932E-10
  0.829999983      -2.98308517E-10
  0.830999970      -2.67850714E-10
  0.832000017      -2.24006577E-10
  0.833000004      -1.67150752E-10
  0.833999991      -9.81302678E-11
  0.834999979      -1.82619302E-11
  0.836000025       7.06862485E-11
  0.837000012       1.66529623E-10
  0.838000000       2.66717065E-10
  0.838999987       3.68395675E-10
  0.839999974       4.68488581E-10
  0.841000021       5.63783797E-10
  0.842000008       6.51031618E-10
  0.842999995       7.27047644E-10
  0.843999982       7.88818455E-10
  0.845000029       8.33606517E-10
  0.846000016       8.59050830E-10
  0.847000003       8.63259741E-10
  0.847999990       8.44892656E-10
  0.848999977       8.03227762E-10
  0.850000024       7.38212547E-10
  0.851000011       6.50495102E-10
  0.851999998       5.41434508E-10
  0.852999985       4.13088758E-10
  0.853999972       2.68180200E-10
  0.855000019       1.10038603E-10
  0.856000006      -5.74774187E-11