   0.00000000       0.00000000    
   1.00000005E-03   0.00000000    
   2.00000009E-03   9.87860575E-12
   3.00000003E-03   4.73315588E-11
   4.00000019E-03   1.33753439E-10
   4.99999989E-03   2.88532892E-10
   6.00000005E-03   5.22442090E-10
   7.00000022E-03   8.30953584E-10
   8.00000038E-03   1.18839261E-09
   8.99999961E-03   1.54382684E-09
   9.99999978E-03   1.81949178E-09
   1.09999999E-02   1.91240446E-09
   1.20000001E-02   1.69950676E-09
   1.30000003E-02   1.04643860E-09
   1.40000004E-02  -1.80342491E-10
   1.49999997E-02  -2.09871298E-09
   1.60000008E-02  -4.79424811E-09
   1.70000009E-02  -8.30310043E-09
   1.79999992E-02  -1.25956161E-08
   1.89999994E-02  -1.75627441E-08
   1.99999996E-02  -2.30060540E-08
   2.09999997E-02  -2.86336697E-08
   2.19999999E-02  -3.40625661E-08
   2.30000000E-02  -3.88286630E-08
   2.40000002E-02  -4.24048068E-08
   2.50000004E-02  -4.42265424E-08
   2.60000005E-02  -4.37250911E-08
   2.70000007E-02  -4.03661531E-08
   2.80000009E-02  -3.36925616E-08
   2.89999992E-02  -2.33687345E-08
   2.99999993E-02  -9.22381105E-09
   3.09999995E-02   8.70927153E-09
   3.20000015E-02   3.01619387E-08
   3.29999998E-02   5.46082788E-08
   3.40000018E-02   8.12561112E-08
   3.50000001E-02   1.09053246E-07
   3.59999985E-02   1.36709659E-07
   3.70000005E-02   1.62737180E-07
   3.79999988E-02   1.85505570E-07
   3.90000008E-02   2.03313888E-07
   3.99999991E-02   2.14474639E-07
   4.10000011E-02   2.17407617E-07
   4.19999994E-02   2.10738676E-07
   4.30000015E-02   1.93398762E-07
   4.39999998E-02   1.64717520E-07
   4.50000018E-02   1.24506172E-07
   4.60000001E-02   7.31233385E-08
   4.69999984E-02   1.15194947E-08
   4.80000004E-02  -5.87453854E-08
   4.89999987E-02  -1.35513432E-07
   5.00000007E-02  -2.16073019E-07
   5.09999990E-02  -2.97234578E-07
   5.20000011E-02  -3.75439100E-07
   5.29999994E-02  -4.46894063E-07
   5.40000014E-02  -5.07734796E-07
   5.49999997E-02  -5.54202643E-07
   5.60000017E-02  -5.82834787E-07
   5.70000000E-02  -5.90655077E-07
   5.79999983E-02  -5.75358285E-07
   5.90000004E-02  -5.35475465E-07
   5.99999987E-02  -4.70514067E-07
   6.10000007E-02  -3.81061369E-07
   6.19999990E-02  -2.68844303E-07
   6.30000010E-02  -1.36739857E-07
   6.40000030E-02   1.12680913E-08
   6.49999976E-02   1.70188201E-07
   6.59999996E-02   3.34174615E-07
   6.70000017E-02   4.96732014E-07
   6.80000037E-02   6.50964466E-07
   6.89999983E-02   7.89859030E-07
   7.00000003E-02   9.06596426E-07
   7.10000023E-02   9.94869652E-07
   7.19999969E-02   1.04920196E-06
   7.29999989E-02   1.06524533E-06
   7.40000010E-02   1.04004528E-06
   7.50000030E-02   9.72258817E-07
   7.59999976E-02   8.62309946E-07
   7.69999996E-02   7.12475469E-07
   7.80000016E-02   5.26888755E-07
   7.90000036E-02   3.11461577E-07
   7.99999982E-02   7.37181551E-08
   8.10000002E-02  -1.77451270E-07
   8.20000023E-02  -4.32112557E-07
   8.29999968E-02  -6.79674486E-07
   8.39999989E-02  -9.09325479E-07
   8.50000009E-02  -1.11050076E-06
   8.60000029E-02  -1.27336511E-06
   8.69999975E-02  -1.38928306E-06
   8.79999995E-02  -1.45126035E-06
   8.90000015E-02  -1.45433046E-06
   9.00000036E-02  -1.39587098E-06
   9.09999982E-02  -1.27582553E-06
   9.20000002E-02  -1.09682310E-06
   9.30000022E-02  -8.64181345E-07
   9.39999968E-02  -5.85789962E-07
   9.49999988E-02  -2.71872381E-07
   9.60000008E-02   6.53667342E-08
   9.70000029E-02   4.12197465E-07
   9.79999974E-02   7.53908580E-07
   9.89999995E-02   1.07541712E-06
  0.100000001       1.36192057E-06
  0.101000004       1.59956198E-06
  0.101999998       1.77607819E-06
  0.103000000       1.88140496E-06
  0.104000002       1.90820515E-06
  0.104999997       1.85229510E-06
  0.105999999       1.71294880E-06
  0.107000001       1.49305617E-06
  0.108000003       1.19912806E-06
  0.108999997       8.41139979E-07
  0.109999999       4.32215785E-07
  0.111000001      -1.18408696E-08
  0.112000003      -4.73148191E-07
  0.112999998      -9.32463308E-07
  0.114000000      -1.36998244E-06
  0.115000002      -1.76619301E-06
  0.115999997      -2.10274015E-06
  0.116999999      -2.36327219E-06
  0.118000001      -2.53421990E-06
  0.119000003      -2.60548086E-06
  0.119999997      -2.57096644E-06
  0.120999999      -2.42899387E-06
  0.122000001      -2.18248806E-06
  0.123000003      -1.83898635E-06
  0.123999998      -1.41044029E-06
  0.125000000      -9.12815324E-07
  0.126000002      -3.65499034E-07
  0.127000004       2.09459770E-07
  0.128000006       7.88249054E-07
  0.128999993       1.34629613E-06
  0.129999995       1.85933243E-06
  0.130999997       2.30447154E-06
  0.131999999       2.66125403E-06
  0.133000001       2.91261381E-06
  0.134000003       3.04571677E-06
  0.135000005       3.05263211E-06
  0.136000007       2.93080120E-06
  0.136999995       2.68328040E-06
  0.137999997       2.31873832E-06
  0.138999999       1.85120018E-06
  0.140000001       1.29954901E-06
  0.141000003       6.86795545E-07
  0.142000005       3.91446306E-08
  0.143000007      -6.15100191E-07
  0.143999994      -1.24675751E-06
  0.144999996      -1.82705355E-06
  0.145999998      -2.32892194E-06
  0.147000000      -2.72825559E-06
  0.148000002      -3.00505872E-06
  0.149000004      -3.14443491E-06
  0.150000006      -3.13737473E-06
  0.150999993      -2.98129680E-06
  0.151999995      -2.68030522E-06
  0.152999997      -2.24515975E-06
  0.153999999      -1.69294469E-06
  0.155000001      -1.04643948E-06
  0.156000003      -3.33224165E-07
  0.157000005       4.15453314E-07
  0.158000007       1.16600199E-06
  0.158999994       1.88394870E-06
  0.159999996       2.53547046E-06
  0.160999998       3.08893277E-06
  0.162000000       3.51637004E-06
  0.163000003       3.79482231E-06
  0.164000005       3.90748801E-06
  0.165000007       3.84462237E-06
  0.165999994       3.60413605E-06
  0.166999996       3.19186461E-06
  0.167999998       2.62148978E-06
  0.169000000       1.91410072E-06
  0.170000002       1.09741995E-06
  0.171000004       2.04706467E-07
  0.172000006      -7.26606515E-07
  0.172999993      -1.65649726E-06
  0.173999995      -2.54408747E-06
  0.174999997      -3.34945503E-06
  0.175999999      -4.03543117E-06
  0.177000001      -4.56933276E-06
  0.178000003      -4.92450863E-06
  0.179000005      -5.08166113E-06
  0.180000007      -5.02986313E-06
  0.180999994      -4.76721743E-06
  0.181999996      -4.30112914E-06
  0.182999998      -3.64816447E-06
  0.184000000      -2.83349459E-06
  0.185000002      -1.88994431E-06
  0.186000004      -8.56681481E-07
  0.187000006       2.22416901E-07
  0.187999994       1.30062585E-06
  0.188999996       2.33041305E-06
  0.189999998       3.26554937E-06
  0.191000000       4.06320305E-06
  0.192000002       4.68592907E-06
  0.193000004       5.10344717E-06
  0.194000006       5.29414137E-06
  0.194999993       5.24619782E-06
  0.195999995       4.95832410E-06
  0.196999997       4.44000898E-06
  0.197999999       3.71131091E-06
  0.199000001       2.80215340E-06
  0.200000003       1.75117793E-06
  0.201000005       6.04173465E-07
  0.202000007      -5.87843658E-07
  0.202999994      -1.77082370E-06
  0.203999996      -2.89005470E-06
  0.204999998      -3.89261868E-06
  0.206000000      -4.72980901E-06
  0.207000002      -5.35940808E-06
  0.208000004      -5.74772776E-06
  0.209000006      -5.87129853E-06
  0.209999993      -5.71814371E-06
  0.210999995      -5.28855799E-06
  0.211999997      -4.59535477E-06
  0.213000000      -3.66356107E-06
  0.214000002      -2.52955215E-06
  0.215000004      -1.23967277E-06
  0.216000006       1.51632136E-07
  0.216999993       1.58406999E-06
  0.217999995       2.99407088E-06
  0.218999997       4.31755416E-06
  0.219999999       5.49277775E-06
  0.221000001       6.46313720E-06
  0.222000003       7.17979856E-06
  0.223000005       7.60403918E-06
  0.224000007       7.70918723E-06
  0.224999994       7.48206639E-06
  0.225999996       6.92388130E-06
  0.226999998       6.05046398E-06
  0.228000000       4.89190734E-06
  0.229000002       3.49153765E-06
  0.230000004       1.90429375E-06
  0.231000006       1.94562404E-07
  0.231999993      -1.56644978E-06
  0.232999995      -3.30369221E-06
  0.233999997      -4.94147889E-06
  0.234999999      -6.40678036E-06
  0.236000001      -7.63247317E-06
  0.237000003      -8.56038150E-06
  0.238000005      -9.14400152E-06
  0.238999993      -9.35075150E-06
  0.239999995      -9.16366662E-06
  0.240999997      -8.58244402E-06
  0.241999999      -7.62377977E-06
  0.243000001      -6.32096817E-06
  0.244000003      -4.72278134E-06
  0.245000005      -2.89164814E-06
  0.246000007      -9.01213070E-07
  0.246999994       1.16663796E-06
  0.247999996       3.22515575E-06
  0.248999998       5.18638035E-06
  0.250000000       6.96490224E-06
  0.250999987       8.48157470E-06
  0.252000004       9.66703101E-06
  0.252999991       1.04648152E-05
  0.254000008       1.08340255E-05
  0.254999995       1.07513133E-05
  0.256000012       1.02121767E-05
  0.256999999       9.23144034E-06
  0.257999986       7.84292934E-06
  0.259000003       6.09830886E-06
  0.259999990       4.06515392E-06
  0.261000007       1.82429255E-06
  0.261999995      -5.33442233E-07
  0.263000011      -2.91094761E-06
  0.263999999      -5.20889625E-06
  0.264999986      -7.32993749E-06
  0.266000003      -9.18286150E-06
  0.266999990      -1.06865646E-05
  0.268000007      -1.17736208E-05
  0.268999994      -1.23933223E-05
  0.270000011      -1.25140277E-05
  0.270999998      -1.21247376E-05
  0.272000015      -1.12357966E-05
  0.273000002      -9.87869498E-06
  0.273999989      -8.10494930E-06
  0.275000006      -5.98414135E-06
  0.275999993      -3.60113836E-06
  0.277000010      -1.05264348E-06
  0.277999997       1.55679948E-06
  0.279000014       4.11916835E-06
  0.280000001       6.52753079E-06
  0.280999988       8.68059396E-06
  0.282000005       1.04870569E-05
  0.282999992       1.18695880E-05
  0.284000009       1.27682206E-05
  0.284999996       1.31430443E-05
  0.286000013       1.29760547E-05
  0.287000000       1.22720894E-05
  0.287999988       1.10587707E-05
  0.289000005       9.38549510E-06
  0.289999992       7.32146555E-06
  0.291000009       4.95285622E-06
  0.291999996       2.37923859E-06
  0.293000013      -2.90603822E-07
  0.294000000      -2.94327924E-06
  0.294999987      -5.46562887E-06
  0.296000004      -7.74959153E-06
  0.296999991      -9.69686425E-06
  0.298000008      -1.12232065E-05
  0.298999995      -1.22621286E-05
  0.300000012      -1.27678695E-05
  0.300999999      -1.27174799E-05
  0.301999986      -1.21119347E-05
  0.303000003      -1.09762341E-05
  0.303999990      -9.35844582E-06
  0.305000007      -7.32776107E-06
  0.305999994      -4.97161273E-06
  0.307000011      -2.39199153E-06
  0.307999998       2.98889177E-07
  0.308999985       2.98340001E-06
  0.310000002       5.54356939E-06
  0.310999990       7.86619421E-06
  0.312000006       9.84778126E-06
  0.312999994       1.13990982E-05
  0.314000010       1.24491271E-05
  0.314999998       1.29482605E-05
  0.316000015       1.28705815E-05
  0.317000002       1.22151278E-05
  0.317999989       1.10060946E-05
  0.319000006       9.29193720E-06
  0.319999993       7.14340695E-06
  0.321000010       4.65063385E-06
  0.321999997       1.91932554E-06
  0.323000014      -9.33706758E-07
  0.324000001      -3.78554569E-06
  0.324999988      -6.51246046E-06
  0.326000005      -8.99524730E-06
  0.326999992      -1.11244171E-05
  0.328000009      -1.28049942E-05
  0.328999996      -1.39606937E-05
  0.330000013      -1.45373469E-05
  0.331000000      -1.45053364E-05
  0.331999987      -1.38610376E-05
  0.333000004      -1.26270997E-05
  0.333999991      -1.08516178E-05
  0.335000008      -8.60619275E-06
  0.335999995      -5.98295310E-06
  0.337000012      -3.09070447E-06
  0.338000000      -5.03084472E-08
  0.338999987       3.01044679E-06
  0.340000004       5.96232348E-06
  0.340999991       8.68018469E-06
  0.342000008       1.10483834E-05
  0.342999995       1.29657765E-05
  0.344000012       1.43501129E-05
  0.344999999       1.51416407E-05
  0.345999986       1.53057299E-05
  0.347000003       1.48344407E-05
  0.347999990       1.37469315E-05
  0.349000007       1.20886971E-05
  0.349999994       9.92967671E-06
  0.351000011       7.36127140E-06
  0.351999998       4.49246954E-06
  0.352999985       1.44517492E-06
  0.354000002      -1.65104166E-06
  0.354999989      -4.66450638E-06
  0.356000006      -7.46712885E-06
  0.356999993      -9.93992398E-06
  0.358000010      -1.19781780E-05
  0.358999997      -1.34959655E-05
  0.360000014      -1.44298810E-05
  0.361000001      -1.47417968E-05
  0.361999989      -1.44205096E-05
  0.363000005      -1.34822312E-05
  0.363999993      -1.19698952E-05
  0.365000010      -9.95126265E-06
  0.365999997      -7.51599055E-06
  0.367000014      -4.77172034E-06
  0.368000001      -1.83936254E-06
  0.368999988       1.15216483E-06
  0.370000005       4.07157950E-06
  0.370999992       6.79097957E-06
  0.372000009       9.19142985E-06
  0.372999996       1.11681939E-05
  0.374000013       1.26352988E-05
  0.375000000       1.35293240E-05
  0.375999987       1.38121814E-05
  0.377000004       1.34727879E-05
  0.377999991       1.25275619E-05
  0.379000008       1.10197061E-05
  0.379999995       9.01729618E-06
  0.381000012       6.61031254E-06
  0.381999999       3.90665218E-06
  0.382999986       1.02739182E-06
  0.384000003      -1.89855416E-06
  0.384999990      -4.74013405E-06
  0.386000007      -7.36996117E-06
  0.386999995      -9.66993412E-06
  0.388000011      -1.15365119E-05
  0.388999999      -1.28852962E-05
  0.389999986      -1.36548124E-05
  0.391000003      -1.38092819E-05
  0.391999990      -1.33402564E-05
  0.393000007      -1.22670544E-05
  0.393999994      -1.06359621E-05
  0.395000011      -8.51825007E-06
  0.395999998      -6.00709609E-06
  0.397000015      -3.21349489E-06
  0.398000002      -2.61407223E-07
  0.398999989       2.71769886E-06
  0.400000006       5.59064301E-06
  0.400999993       8.22842503E-06
  0.402000010       1.05119407E-05
  0.402999997       1.23372984E-05
  0.404000014       1.36204599E-05
  0.405000001       1.43010220E-05
  0.405999988       1.43449925E-05
  0.407000005       1.37463803E-05
  0.407999992       1.25275674E-05
  0.409000009       1.07384503E-05
  0.409999996       8.45433897E-06
  0.411000013       5.77276887E-06
  0.412000000       2.80926292E-06
  0.412999988      -3.07630074E-07
  0.414000005      -3.44195678E-06
  0.414999992      -6.45630553E-06
  0.416000009      -9.21779429E-06
  0.416999996      -1.16039655E-05
  0.418000013      -1.35081436E-05
  0.419000000      -1.48442205E-05
  0.419999987      -1.55504695E-05
  0.421000004      -1.55923753E-05
  0.421999991      -1.49642283E-05
  0.423000008      -1.36895032E-05
  0.423999995      -1.18199396E-05
  0.425000012      -9.43341274E-06
  0.425999999      -6.63061883E-06
  0.426999986      -3.53079690E-06
  0.428000003      -2.66560164E-07
  0.428999990       3.02175204E-06
  0.430000007       6.19221737E-06
  0.430999994       9.10745348E-06
  0.432000011       1.16406118E-05
  0.432999998       1.36809222E-05
  0.433999985       1.51385329E-05
  0.435000002       1.59484953E-05
  0.435999990       1.60736272E-05
  0.437000006       1.55062280E-05
  0.437999994       1.42684703E-05
  0.439000010       1.24115413E-05
  0.439999998       1.00134739E-05
  0.441000015       7.17588591E-06
  0.442000002       4.01960006E-06
  0.442999989       6.79480081E-07
  0.444000006      -2.70136184E-06
  0.444999993      -5.97772623E-06
  0.446000010      -9.00856867E-06
  0.446999997      -1.16631609E-05
  0.448000014      -1.38266705E-05
  0.449000001      -1.54051650E-05
  0.449999988      -1.63297318E-05
  0.451000005      -1.65594338E-05
  0.451999992      -1.60831314E-05
  0.453000009      -1.49200114E-05
  0.453999996      -1.31187717E-05
  0.455000013      -1.07556270E-05
  0.456000000      -7.93095205E-06
  0.456999987      -4.76509013E-06
  0.458000004      -1.39315534E-06
  0.458999991       2.04078151E-06
  0.460000008       5.38982295E-06
  0.460999995       8.51057666E-06
  0.462000012       1.12693160E-05
  0.463000000       1.35476830E-05
  0.463999987       1.52478051E-05
  0.465000004       1.62964552E-05
  0.465999991       1.66482041E-05
  0.467000008       1.62873821E-05
  0.467999995       1.52286721E-05
  0.469000012       1.35165546E-05
  0.469999999       1.12233138E-05
  0.470999986       8.44597980E-06
  0.472000003       5.30213993E-06
  0.472999990       1.92488483E-06
  0.474000007      -1.54284612E-06
  0.474999994      -4.95443510E-06
  0.476000011      -8.16577540E-06
  0.476999998      -1.10414785E-05
  0.477999985      -1.34605798E-05
  0.479000002      -1.53216770E-05
  0.479999989      -1.65472102E-05
  0.481000006      -1.70866915E-05
  0.481999993      -1.69188334E-05
  0.483000010      -1.60522832E-05
  0.483999997      -1.45252861E-05
  0.485000014      -1.24038534E-05
  0.486000001      -9.77893160E-06
  0.486999989      -6.76246282E-06
  0.488000005      -3.48248750E-06
  0.488999993      -7.76781235E-08
  0.490000010       3.30856869E-06
  0.490999997       6.53430698E-06
  0.492000014       9.46496857E-06
  0.493000001       1.19791821E-05
  0.493999988       1.39737294E-05
  0.495000005       1.53679139E-05
  0.495999992       1.61068328E-05
  0.497000009       1.61635944E-05
  0.497999996       1.55402759E-05
  0.499000013       1.42676818E-05
  0.500000000       1.24038679E-05
  0.500999987       1.00314983E-05
  0.501999974       7.25415157E-06
  0.503000021       4.19182743E-06
  0.504000008       9.75702392E-07
  0.504999995      -2.25751023E-06
  0.505999982      -5.37140750E-06
  0.507000029      -8.23570008E-06
  0.508000016      -1.07317055E-05
  0.509000003      -1.27572857E-05
  0.509999990      -1.42310655E-05
  0.510999978      -1.50957303E-05
  0.512000024      -1.53202618E-05
  0.513000011      -1.49010139E-05
  0.513999999      -1.38616924E-05
  0.514999986      -1.22519805E-05
  0.515999973      -1.01453115E-05
  0.517000020      -7.63544722E-06
  0.518000007      -4.83231406E-06
  0.518999994      -1.85712895E-06
  0.519999981       1.16281171E-06
  0.521000028       4.09971562E-06
  0.522000015       6.83063217E-06
  0.523000002       9.24273536E-06
  0.523999989       1.12380239E-05
  0.524999976       1.27372923E-05
  0.526000023       1.36833469E-05
  0.527000010       1.40431639E-05
  0.527999997       1.38090672E-05
  0.528999984       1.29986911E-05
  0.529999971       1.16539723E-05
  0.531000018       9.83903919E-06
  0.532000005       7.63713251E-06
  0.532999992       5.14690146E-06
  0.533999979       2.47788512E-06
  0.535000026      -2.54346105E-07
  0.536000013      -2.93311791E-06
  0.537000000      -5.44586192E-06
  0.537999988      -7.68877180E-06
  0.538999975      -9.57119664E-06
  0.540000021      -1.10193687E-05
  0.541000009      -1.19793458E-05
  0.541999996      -1.24190265E-05
  0.542999983      -1.23292848E-05
  0.544000030      -1.17239124E-05
  0.545000017      -1.06387970E-05
  0.546000004      -9.12998530E-06
  0.546999991      -7.27079941E-06
  0.547999978      -5.14867725E-06
  0.549000025      -2.86083286E-06
  0.550000012      -5.10092605E-07
  0.550999999       1.79984147E-06
  0.551999986       3.96887981E-06
  0.552999973       5.90481886E-06
  0.554000020       7.52740107E-06
  0.555000007       8.77148796E-06
  0.555999994       9.58979672E-06
  0.556999981       9.95462051E-06
  0.558000028       9.85887891E-06
  0.559000015       9.31589329E-06
  0.560000002       8.35865194E-06
  0.560999990       7.03788737E-06
  0.561999977       5.41975396E-06
  0.563000023       3.58249690E-06
  0.564000010       1.61273670E-06
  0.564999998      -3.98284385E-07
  0.565999985      -2.35904076E-06
  0.566999972      -4.18161653E-06
  0.568000019      -5.78573281E-06
  0.569000006      -7.10207178E-06
  0.569999993      -8.07525521E-06
  0.570999980      -8.66603932E-06
  0.572000027      -8.85287864E-06
  0.573000014      -8.63255991E-06
  0.574000001      -8.02011436E-06
  0.574999988      -7.04783224E-06
  0.575999975      -5.76351977E-06
  0.577000022      -4.22822586E-06
  0.578000009      -2.51323286E-06
  0.578999996      -6.96727341E-07
  0.579999983       1.13975466E-06
  0.580999970       2.91510310E-06
  0.582000017       4.55207737E-06
  0.583000004       5.98091265E-06
  0.583999991       7.14216185E-06
  0.584999979       7.98918791E-06
  0.586000025       8.49007483E-06
  0.587000012       8.62886554E-06
  0.588000000       8.40585653E-06
  0.588999987       7.83735959E-06
  0.589999974       6.95471954E-06
  0.591000021       5.80268988E-06
  0.592000008       4.43701174E-06
  0.592999995       2.92187906E-06
  0.593999982       1.32680316E-06
  0.595000029      -2.76674996E-07
  0.596000016      -1.81801488E-06
  0.597000003      -3.23114227E-06
  0.597999990      -4.45708565E-06
  0.598999977      -5.44674913E-06
  0.600000024      -6.16273201E-06
  0.601000011      -6.58086628E-06
  0.601999998      -6.69107203E-06
  0.602999985      -6.49760614E-06
  0.603999972      -6.01831516E-06
  0.605000019      -5.28378268E-06
  0.606000006      -4.33551395E-06
  0.606999993      -3.22377809E-06
  0.607999980      -2.00520935E-06
  0.609000027      -7.39818745E-07
  0.610000014       5.11622659E-07
  0.611000001       1.69065231E-06
  0.611999989       2.74370086E-06
  0.612999976       3.62454148E-06
  0.614000022       4.29642796E-06
  0.615000010       4.73341652E-06
  0.615999997       4.92164872E-06
  0.616999984       4.85960072E-06
  0.617999971       4.55804866E-06
  0.619000018       4.03920649E-06
  0.620000005       3.33551884E-06
  0.620999992       2.48808760E-06
  0.621999979       1.54403676E-06
  0.623000026       5.54745327E-07
  0.624000013      -4.27060940E-07
  0.625000000      -1.34985623E-06
  0.625999987      -2.16579383E-06
  0.626999974      -2.83286795E-06
  0.628000021      -3.31709134E-06
  0.629000008      -3.59399451E-06
  0.629999995      -3.64963603E-06
  0.630999982      -3.48117032E-06
  0.632000029      -3.09709685E-06
  0.633000016      -2.51638744E-06
  0.634000003      -1.76794140E-06
  0.634999990      -8.88515615E-07
  0.635999978       7.85382852E-08
  0.637000024       1.08594770E-06
  0.638000011       2.08433903E-06
  0.638999999       3.02516878E-06
  0.639999986       3.86265538E-06
  0.640999973       4.55629061E-06
  0.642000020       5.07258119E-06
  0.643000007       5.38673930E-06
  0.643999994       5.48371327E-06
  0.644999981       5.35916479E-06
  0.646000028       5.01931572E-06
  0.647000015       4.48071432E-06
  0.648000002       3.76956336E-06
  0.648999989       2.92009622E-06
  0.649999976       1.97321492E-06
  0.651000023       9.74405452E-07
  0.652000010      -2.85718755E-08
  0.652999997      -9.87887461E-07
  0.653999984      -1.85792658E-06
  0.654999971      -2.59745320E-06
  0.656000018      -3.17171566E-06
  0.657000005      -3.55386965E-06
  0.657999992      -3.72653449E-06
  0.658999979      -3.68217979E-06
  0.660000026      -3.42390013E-06
  0.661000013      -2.96497592E-06
  0.662000000      -2.32822663E-06
  0.662999988      -1.54494842E-06
  0.663999975      -6.53284360E-07
  0.665000021       3.03408598E-07
  0.666000009       1.27893600E-06
  0.666999996       2.22630774E-06
  0.667999983       3.10024143E-06
  0.669000030       3.85898420E-06
  0.670000017       4.46657805E-06
  0.671000004       4.89462809E-06
  0.671999991       5.12342331E-06
  0.672999978       5.14321391E-06
  0.674000025       4.95442191E-06
  0.675000012       4.56764701E-06
  0.675999999       4.00338149E-06
  0.676999986       3.29091108E-06
  0.677999973       2.46660238E-06
  0.679000020       1.57265163E-06
  0.680000007       6.54807820E-07
  0.680999994      -2.39891421E-07
  0.681999981      -1.06533753E-06
  0.683000028      -1.77854304E-06
  0.684000015      -2.34180789E-06
  0.685000002      -2.72468765E-06
  0.685999990      -2.90509229E-06
  0.686999977      -2.87110402E-06
  0.688000023      -2.62081562E-06
  0.689000010      -2.16311014E-06
  0.689999998      -1.51720394E-06
  0.690999985      -7.11496909E-07
  0.691999972       2.17468752E-07
  0.693000019       1.22669223E-06
  0.694000006       2.26875636E-06
  0.694999993       3.29415093E-06
  0.695999980       4.25336157E-06
  0.697000027       5.09960228E-06
  0.698000014       5.79063453E-06
  0.699000001       6.29147189E-06
  0.699999988       6.57546116E-06
  0.700999975       6.62581715E-06
  0.702000022       6.43690646E-06
  0.703000009       6.01414376E-06
  0.703999996       5.37442202E-06
  0.704999983       4.54497058E-06
  0.705999970       3.56242572E-06
  0.707000017       2.47127969E-06
  0.708000004       1.32204298E-06
  0.708999991       1.68539060E-07
  0.709999979      -9.34011723E-07
  0.711000025      -1.93190635E-06
  0.712000012      -2.77506024E-06
  0.713000000      -3.41997270E-06
  0.713999987      -3.83114866E-06
  0.714999974      -3.98326574E-06
  0.716000021      -3.86200145E-06
  0.717000008      -3.46557044E-06
  0.717999995      -2.80446648E-06
  0.718999982      -1.90094067E-06
  0.720000029      -7.88723469E-07
  0.721000016       4.88428157E-07
  0.722000003       1.87907892E-06
  0.722999990       3.32546642E-06
  0.723999977       4.76711239E-06
  0.725000024       6.14175497E-06
  0.726000011       7.39016969E-06
  0.726999998       8.45699651E-06
  0.727999985       9.29419548E-06
  0.728999972       9.86305167E-06
  0.730000019       1.01355108E-05
  0.731000006       1.00963707E-05
  0.731999993       9.74310024E-06
  0.732999980       9.08673428E-06
  0.734000027       8.15122803E-06
  0.735000014       6.97274299E-06
  0.736000001       5.59783075E-06
  0.736999989       4.08188907E-06
  0.737999976       2.48660945E-06
  0.739000022       8.77801597E-07
  0.740000010      -6.78313313E-07
  0.740999997      -2.11682118E-06
  0.741999984      -3.37748043E-06
  0.742999971      -4.40724398E-06
  0.744000018      -5.16224463E-06
  0.745000005      -5.61014213E-06
  0.745999992      -5.73089164E-06
  0.746999979      -5.51833909E-06
  0.748000026      -4.97984001E-06
  0.749000013      -4.13627731E-06
  0.750000000      -3.02111562E-06
  0.750999987      -1.67911253E-06
  0.751999974      -1.64073441E-07
  0.753000021       1.46301250E-06
  0.754000008       3.13687815E-06
  0.754999995       4.79050641E-06
  0.755999982       6.35812194E-06
  0.757000029       7.77782134E-06
  0.758000016       8.99426868E-06
  0.759000003       9.96102244E-06
  0.759999990       1.06421330E-05
  0.760999978       1.10139817E-05
  0.762000024       1.10661349E-05
  0.763000011       1.08014692E-05
  0.763999999       1.02361319E-05
  0.764999986       9.39887286E-06
  0.765999973       8.32943533E-06
  0.767000020       7.07692288E-06
  0.768000007       5.69799522E-06
  0.768999994       4.25359303E-06
  0.769999981       2.80710015E-06
  0.771000028       1.42117585E-06
  0.772000015       1.55407818E-07
  0.773000002      -9.36524998E-07
  0.773999989      -1.80872109E-06
  0.774999976      -2.42547662E-06
  0.776000023      -2.76216338E-06
  0.777000010      -2.80631480E-06
  0.777999997      -2.55842974E-06
  0.778999984      -2.03129684E-06
  0.779999971      -1.24964686E-06
  0.781000018      -2.48935152E-07
  0.782000005       9.26464054E-07
  0.782999992       2.22489371E-06
  0.783999979       3.59017668E-06
  0.785000026       4.96330767E-06
  0.786000013       6.28588305E-06
  0.787000000       7.50195022E-06
  0.787999988       8.56091083E-06
  0.788999975       9.41894086E-06
  0.790000021       1.00413936E-05
  0.791000009       1.04038454E-05
  0.791999996       1.04933097E-05
  0.792999983       1.03083858E-05
  0.794000030       9.85954739E-06
  0.795000017       9.16818408E-06
  0.796000004       8.26562700E-06
  0.796999991       7.19188301E-06
  0.797999978       5.99403893E-06
  0.799000025       4.72368765E-06
  0.800000012       3.43489842E-06
  0.800999999       2.18230775E-06
  0.801999986       1.01827186E-06
  0.802999973      -9.57968727E-09
  0.804000020      -8.58803162E-07
  0.805000007      -1.49590005E-06
  0.805999994      -1.89613593E-06
  0.806999981      -2.04513594E-06
  0.808000028      -1.93844858E-06
  0.809000015      -1.58334535E-06
  0.810000002      -9.96131234E-07
  0.810999990      -2.02895322E-07
  0.811999977       7.61953117E-07
  0.813000023       1.85800786E-06
  0.814000010       3.03994534E-06
  0.814999998       4.25973303E-06
  0.815999985       5.46850924E-06
  0.816999972       6.61923286E-06
  0.818000019       7.66780340E-06
  0.819000006       8.57519899E-06
  0.819999993       9.30919668E-06
  0.820999980       9.84516282E-06
  0.822000027       1.01675469E-05
  0.823000014       1.02691847E-05
  0.824000001       1.01526848E-05
  0.824999988       9.82950951E-06
  0.825999975       9.31854993E-06
  0.827000022       8.64722551E-06
  0.828000009       7.84772237E-06
  0.828999996       6.95707058E-06
  0.829999983       6.01478587E-06
  0.830999970       5.06130618E-06
  0.832000017       4.13715316E-06
  0.833000004       3.27925795E-06
  0.833999991       2.52155155E-06
  0.834999979       1.89270315E-06
  0.836000025       1.41463750E-06
  0.837000012       1.10266092E-06
  0.838000000       9.64584387E-07
  0.838999987       1.00093280E-06
  0.839999974       1.20426716E-06
  0.841000021       1.56137503E-06
  0.842000008       2.05225774E-06
  0.842999995       2.65209064E-06
  0.843999982       3.33216713E-06
  0.845000029       4.06182835E-06
  0.846000016       4.80883909E-06
  0.847000003       5.54133931E-06
  0.847999990       6.22947664E-06
  0.848999977       6.84508268E-06
  0.850000024       7.36556422E-06
  0.851000011       7.77140485E-06
  0.851999998       8.04969113E-06
  0.852999985       8.19181241E-06
  0.853999972       8.19625438E-06
  0.855000019       8.06620483E-06
  0.856000006       7.81063409E-06