   0.00000000       0.00000000    
   1.00000005E-03   0.00000000    
   2.00000009E-03   0.00000000    
   3.00000003E-03   0.00000000    
   4.00000019E-03   0.00000000    
   4.99999989E-03   0.00000000    
   6.00000005E-03   0.00000000    
   7.00000022E-03   0.00000000    
   8.00000038E-03   0.00000000    
   8.99999961E-03   0.00000000    
   9.99999978E-03   0.00000000    
   1.09999999E-02   0.00000000    
   1.20000001E-02   0.00000000    
   1.30000003E-02   0.00000000    
   1.40000004E-02   0.00000000    
   1.49999997E-02   0.00000000    
   1.60000008E-02   0.00000000    
   1.70000009E-02   0.00000000    
   1.79999992E-02   0.00000000    
   1.89999994E-02   0.00000000    
   1.99999996E-02   0.00000000    
   2.09999997E-02   0.00000000    
   2.19999999E-02   0.00000000    
   2.30000000E-02   0.00000000    
   2.40000002E-02   0.00000000    
   2.50000004E-02   0.00000000    
   2.60000005E-02   0.00000000    
   2.70000007E-02   0.00000000    
   2.80000009E-02   0.00000000    
   2.89999992E-02  -2.49101289E-38
   2.99999993E-02  -1.00774345E-37
   3.09999995E-02  -2.48840855E-37
   3.20000015E-02  -5.25464593E-37
   3.29999998E-02  -1.02055101E-36
   3.40000018E-02  -1.88108189E-36
   3.50000001E-02  -3.33173333E-36
   3.59999985E-02  -5.72516043E-36
   3.70000005E-02  -9.59230223E-36
   3.79999988E-02  -1.57112970E-35
   3.90000008E-02  -2.51997549E-35
   3.99999991E-02  -3.96223617E-35
   4.10000011E-02  -6.11222280E-35
   4.19999994E-02  -9.25601012E-35
   4.30000015E-02  -1.37660456E-34
   4.39999998E-02  -2.01142420E-34
   4.50000018E-02  -2.88801927E-34
   4.60000001E-02  -4.07513953E-34
   4.69999984E-02  -5.65086078E-34
   4.80000004E-02  -7.69885892E-34
   4.89999987E-02  -1.03014098E-33
   5.00000007E-02  -1.35277947E-33
   5.09999990E-02  -1.74165118E-33
   5.20000011E-02  -2.19494036E-33
   5.29999994E-02  -2.70155289E-33
   5.40000014E-02  -3.23623623E-33
   5.49999997E-02  -3.75318302E-33
   5.60000017E-02  -4.17787112E-33
   5.70000000E-02  -4.39692744E-33
   5.79999983E-02  -4.24587347E-33
   5.90000004E-02  -3.49473405E-33
   5.99999987E-02  -1.83168211E-33
   6.10000007E-02   1.15482567E-33
   6.19999990E-02   5.99458883E-33
   6.30000010E-02   1.33535262E-32
   6.40000030E-02   2.40488806E-32
   6.49999976E-02   3.90589678E-32
   6.59999996E-02   5.95238189E-32
   6.70000017E-02   8.67319523E-32
   6.80000037E-02   1.22087572E-31
   6.89999983E-02   1.67051348E-31
   7.00000003E-02   2.23047326E-31
   7.10000023E-02   2.91327867E-31
   7.19999969E-02   3.72788920E-31
   7.29999989E-02   4.67729202E-31
   7.40000010E-02   5.75548788E-31
   7.50000030E-02   6.94387553E-31
   7.59999976E-02   8.20709467E-31
   7.69999996E-02   9.48847191E-31
   7.80000016E-02   1.07053380E-30
   7.90000036E-02   1.17446010E-30
   7.99999982E-02   1.24591436E-30
   8.10000002E-02   1.26657767E-30
   8.20000023E-02   1.21456816E-30
   8.29999968E-02   1.06484403E-30
   8.39999989E-02   7.90090754E-31
   8.50000009E-02   3.62226233E-31
   8.60000029E-02  -2.45344573E-31
   8.69999975E-02  -1.05460943E-30
   8.79999995E-02  -2.07887756E-30
   8.90000015E-02  -3.31773783E-30
   9.00000036E-02  -4.75110291E-30
   9.09999982E-02  -6.33252311E-30
   9.20000002E-02  -7.98209565E-30
   9.30000022E-02  -9.57948301E-30
   9.39999968E-02  -1.09577703E-29
   9.49999988E-02  -1.18991144E-29
   9.60000008E-02  -1.21333835E-29
   9.70000029E-02  -1.13412116E-29
   9.79999974E-02  -9.16307138E-30
   9.89999995E-02  -5.21609236E-30
  0.100000001       8.79671323E-31
  0.101000004       9.46394000E-30
  0.101999998       2.07867033E-29
  0.103000000       3.49459236E-29
  0.104000002       5.18127095E-29
  0.104999997       7.09456439E-29
  0.105999999       9.14972423E-29
  0.107000001       1.12117663E-28
  0.108000003       1.30862859E-28
  0.108999997       1.45116811E-28
  0.109999999       1.51539944E-28
  0.111000001       1.46058326E-28
  0.112000003       1.23910108E-28
  0.112999998       7.97675345E-29
  0.114000000       7.95301787E-30
  0.115000002      -9.72326797E-29
  0.115999997      -2.41054905E-28
  0.116999999      -4.27751015E-28
  0.118000001      -6.59793940E-28
  0.119000003      -9.37018844E-28
  0.119999997      -1.25563189E-27
  0.120999999      -1.60713365E-27
  0.122000001      -1.97721053E-27
  0.123000003      -2.34466448E-27
  0.123999998      -2.68047617E-27
  0.125000000      -2.94711559E-27
  0.126000002      -3.09823753E-27
  0.127000004      -3.07891236E-27
  0.128000006      -2.82655815E-27
  0.128999993      -2.27273889E-27
  0.129999995      -1.34599180E-27
  0.130999997       2.41821208E-29
  0.131999999       1.90206132E-27
  0.133000001       4.33913750E-27
  0.134000003       7.36627605E-27
  0.135000005       1.09847317E-26
  0.136000007       1.51562675E-26
  0.136999995       1.97927697E-26
  0.137999997       2.47458964E-26
  0.138999999       2.97974581E-26
  0.140000001       3.46513778E-26
  0.141000003       3.89282765E-26
  0.142000005       4.21637926E-26
  0.143000007       4.38118617E-26
  0.143999994       4.32542542E-26
  0.144999996       3.98175477E-26
  0.145999998       3.27987102E-26
  0.147000000       2.15000773E-26
  0.148000002       5.27433326E-27
  0.149000004      -1.64205188E-26
  0.150000006      -4.39567348E-26
  0.150999993      -7.74642735E-26
  0.151999995      -1.16752289E-25
  0.152999997      -1.61227725E-25
  0.153999999      -2.09815307E-25
  0.155000001      -2.60883943E-25
  0.156000003      -3.12185787E-25
  0.157000005      -3.60815068E-25
  0.158000007      -4.03194401E-25
  0.158999994      -4.35096479E-25
  0.159999996      -4.51709742E-25
  0.160999998      -4.47755231E-25
  0.162000000      -4.17661716E-25
  0.163000003      -3.55803780E-25
  0.164000005      -2.56805385E-25
  0.165000007      -1.15908874E-25
  0.165999994       7.05955322E-26
  0.166999996       3.04888306E-25
  0.167999998       5.87101396E-25
  0.169000000       9.14780855E-25
  0.170000002       1.28235720E-24
  0.171000004       1.68065317E-24
  0.172000006       2.09646747E-24
  0.172999993       2.51227468E-24
  0.173999995       2.90608489E-24
  0.174999997       3.25151012E-24
  0.175999999       3.51808456E-24
  0.177000001       3.67187891E-24
  0.178000003       3.67644641E-24
  0.179000005       3.49412803E-24
  0.180000007       3.08773194E-24
  0.180999994       2.42258060E-24
  0.181999996       1.46890969E-24
  0.182999998       2.04565339E-25
  0.184000000      -1.38206882E-24
  0.185000002      -3.28901592E-24
  0.186000004      -5.49765211E-24
  0.187000006      -7.96981282E-24
  0.187999994      -1.06452417E-23
  0.188999996      -1.34395897E-23
  0.189999998      -1.62431919E-23
  0.191000000      -1.89208383E-23
  0.192000002      -2.13127876E-23
  0.193000004      -2.32372185E-23
  0.194000006      -2.44943283E-23
  0.194999993      -2.48721959E-23
  0.195999995      -2.41545076E-23
  0.196999997      -2.21301658E-23
  0.197999999      -1.86046628E-23
  0.199000001      -1.34130603E-23
  0.200000003      -6.43426469E-24
  0.201000005       2.39385758E-24
  0.202000007       1.30590582E-23
  0.202999994       2.54596921E-23
  0.203999996       3.93909047E-23
  0.204999998       5.45329257E-23
  0.206000000       7.04424642E-23
  0.207000002       8.65482586E-23
  0.208000004       1.02151738E-22
  0.209000006       1.16433863E-22
  0.209999993       1.28468977E-22
  0.210999995       1.37246386E-22
  0.211999997       1.41700156E-22
  0.213000000       1.40747288E-22
  0.214000002       1.33334154E-22
  0.215000004       1.18490480E-22
  0.216000006       9.53899379E-23
  0.216999993       6.34156383E-23
  0.217999995       2.22285115E-23
  0.218999997      -2.81640383E-23
  0.219999999      -8.73423702E-23
  0.221000001      -1.54415256E-22
  0.222000003      -2.27970805E-22
  0.223000005      -3.06041832E-22
  0.224000007      -3.86089782E-22
  0.224999994      -4.65011365E-22
  0.225999996      -5.39171762E-22
  0.226999998      -6.04467332E-22
  0.228000000      -6.56420676E-22
  0.229000002      -6.90309383E-22
  0.230000004      -7.01328293E-22
  0.231000006      -6.84784479E-22
  0.231999993      -6.36321712E-22
  0.232999995      -5.52169565E-22
  0.233999997      -4.29410388E-22
  0.234999999      -2.66255626E-22
  0.236000001      -6.23206994E-23
  0.237000003       1.81113553E-22
  0.238000005       4.60866879E-22
  0.238999993       7.71667675E-22
  0.239999995       1.10601843E-21
  0.240999997       1.45413434E-21
  0.241999999       1.80396944E-21
  0.243000001       2.14134341E-21
  0.244000003       2.45018147E-21
  0.245000005       2.71287291E-21
  0.246000007       2.91075507E-21
  0.246999994       3.02472142E-21
  0.247999996       3.03594510E-21
  0.248999998       2.92671081E-21
  0.250000000       2.68133302E-21
  0.250999987       2.28713622E-21
  0.252000004       1.73546612E-21
  0.252999991       1.02269422E-21
  0.254000008       1.51171851E-22
  0.254999995      -8.69914104E-22
  0.256000012      -2.02383409E-21
  0.256999999      -3.28581100E-21
  0.257999986      -4.62276832E-21
  0.259000003      -5.99338156E-21
  0.259999990      -7.34847546E-21
  0.261000007      -8.63180741E-21
  0.261999995      -9.78125242E-21
  0.263000011      -1.07304115E-20
  0.263999999      -1.14106415E-20
  0.264999986      -1.17534699E-20
  0.266000003      -1.16933765E-20
  0.266999990      -1.11708577E-20
  0.268000007      -1.01357066E-20
  0.268999994      -8.55040282E-21
  0.270000011      -6.39348494E-21
  0.270999998      -3.66277554E-21
  0.272000015      -3.78297199E-22
  0.273000002       3.41527567E-21
  0.273999989       7.64679524E-21
  0.275000006       1.22176176E-20
  0.275999993       1.70015165E-20
  0.277000010       2.18456946E-20
  0.277999997       2.65729752E-20
  0.279000014       3.09852810E-20
  0.280000001       3.48684093E-20
  0.280999988       3.79981215E-20
  0.282000005       4.01474663E-20
  0.282999992       4.10952279E-20
  0.284000009       4.06352896E-20
  0.284999996       3.85867251E-20
  0.286000013       3.48042414E-20
  0.287000000       2.91886803E-20
  0.287999988       2.16971349E-20
  0.289000005       1.23522259E-20
  0.289999992       1.25009427E-21
  0.291000009      -1.14333849E-20
  0.291999996      -2.54386553E-20
  0.293000013      -4.04212405E-20
  0.294000000      -5.59536050E-20
  0.294999987      -7.15304564E-20
  0.296000004      -8.65777118E-20
  0.296999991      -1.00465318E-19
  0.298000008      -1.12523796E-19
  0.298999995      -1.22064458E-19
  0.300000012      -1.28402949E-19
  0.300999999      -1.30885628E-19
  0.301999986      -1.28918102E-19
  0.303000003      -1.21995169E-19
  0.303999990      -1.09731079E-19
  0.305000007      -9.18891032E-20
  0.305999994      -6.84091873E-20
  0.307000011      -3.94323073E-20
  0.307999998      -5.32031422E-21
  0.308999985       3.33301151E-20
  0.310000002       7.56806348E-20
  0.310999990       1.20652616E-19
  0.312000006       1.66937688E-19
  0.312999994       2.13018227E-19
  0.314000010       2.57198008E-19
  0.314999998       2.97643262E-19
  0.316000015       3.32433833E-19
  0.317000002       3.59623466E-19
  0.317999989       3.77308329E-19
  0.319000006       3.83702048E-19
  0.319999993       3.77215091E-19
  0.321000010       3.56536247E-19
  0.321999997       3.20713330E-19
  0.323000014       2.69229815E-19
  0.324000001       2.02074498E-19
  0.324999988       1.19800374E-19
  0.326000005       2.35696311E-20
  0.326999992      -8.48186476E-20
  0.328000009      -2.02920923E-19
  0.328999996      -3.27664464E-19
  0.330000013      -4.55387226E-19
  0.331000000      -5.81903880E-19
  0.331999987      -7.02597907E-19
  0.333000004      -8.12540136E-19
  0.333999991      -9.06631310E-19
  0.335000008      -9.79766588E-19
  0.335999995      -1.02701856E-18
  0.337000012      -1.04383348E-18
  0.338000000      -1.02623532E-18
  0.338999987      -9.71030837E-19
  0.340000004      -8.76008774E-19
  0.340999991      -7.40124971E-19
  0.342000008      -5.63664806E-19
  0.342999995      -3.48375309E-19
  0.344000012      -9.75586120E-20
  0.344999999       1.83880389E-19
  0.345999986       4.89438994E-19
  0.347000003       8.11079594E-19
  0.347999990       1.13935330E-18
  0.349000007       1.46358794E-18
  0.349999994       1.77213748E-18
  0.351000011       2.05269315E-18
  0.351999998       2.29264873E-18
  0.352999985       2.47951462E-18
  0.354000002       2.60136805E-18
  0.354999989       2.64732951E-18
  0.356000006       2.60805043E-18
  0.356999993       2.47619287E-18
  0.358000010       2.24688766E-18
  0.358999997       1.91814995E-18
  0.360000014       1.49123335E-18
  0.361000001       9.70904381E-19
  0.361999989       3.65620448E-19
  0.363000005      -3.12405412E-19
  0.363999993      -1.04726566E-18
  0.365000010      -1.81955457E-18
  0.365999997      -2.60670626E-18
  0.367000014      -3.38347580E-18
  0.368000001      -4.12255899E-18
  0.368999988      -4.79534385E-18
  0.370000005      -5.37277465E-18
  0.370999992      -5.82631613E-18
  0.372000009      -6.12898482E-18
  0.372999996      -6.25642358E-18
  0.374000013      -6.18798224E-18
  0.375000000      -5.90776695E-18
  0.375999987      -5.40561910E-18
  0.377000004      -4.67798512E-18
  0.377999991      -3.72863118E-18
  0.379000008      -2.56917108E-18
  0.379999995      -1.21936700E-18
  0.381000012       2.92825142E-19
  0.381999999       1.93148989E-18
  0.382999986       3.65328329E-18
  0.384000003       5.40826442E-18
  0.384999990       7.14102872E-18
  0.386000007       8.79212672E-18
  0.386999995       1.02997420E-17
  0.388000011       1.16015944E-17
  0.388999999       1.26370219E-17
  0.389999986       1.33491739E-17
  0.391000003       1.36872633E-17
  0.391999990       1.36087953E-17
  0.393000007       1.30816910E-17
  0.393999994       1.20862304E-17
  0.395000011       1.06167275E-17
  0.395999998       8.68286112E-18
  0.397000015       6.31058075E-18
  0.398000002       3.54253084E-18
  0.398999989       4.37933560E-19
  0.400000006      -2.92810356E-18
  0.400999993      -6.46588225E-18
  0.402000010      -1.00730060E-17
  0.402999997      -1.36368582E-17
  0.404000014      -1.70376161E-17
  0.405000001      -2.01517460E-17
  0.405999988      -2.28558920E-17
  0.407000005      -2.50310511E-17
  0.407999992      -2.65669121E-17
  0.409000009      -2.73662200E-17
  0.409999996      -2.73490230E-17
  0.411000013      -2.64566274E-17
  0.412000000      -2.46551323E-17
  0.412999988      -2.19383519E-17
  0.414000005      -1.83300114E-17
  0.414999992      -1.38850753E-17
  0.416000009      -8.69009647E-18
  0.416999996      -2.86250421E-18
  0.418000013       3.45121072E-18
  0.419000000       1.00784397E-17
  0.419999987       1.68244996E-17
  0.421000004       2.34777135E-17
  0.421999991       2.98154208E-17
  0.423000008       3.56107904E-17
  0.423999995       4.06402041E-17
  0.425000012       4.46910730E-17
  0.425999999       4.75697442E-17
  0.426999986       4.91093258E-17
  0.428000003       4.91770819E-17
  0.428999990       4.76811290E-17
  0.430000007       4.45761643E-17
  0.430999994       3.98679482E-17
  0.432000011       3.36163190E-17
  0.432999998       2.59364979E-17
  0.433999985       1.69985748E-17
  0.435000002       7.02504973E-18
  0.435999990      -3.71361661E-18
  0.437000006      -1.49053959E-17
  0.437999994      -2.62049296E-17
  0.439000010      -3.72434564E-17
  0.439999998      -4.76401637E-17
  0.441000015      -5.70146479E-17
  0.442000002      -6.50001636E-17
  0.442999989      -7.12571231E-17
  0.444000006      -7.54865307E-17
  0.444999993      -7.74427665E-17
  0.446000010      -7.69452273E-17
  0.446999997      -7.38884045E-17
  0.448000014      -6.82498518E-17
  0.449000001      -6.00957038E-17
  0.449999988      -4.95833533E-17
  0.451000005      -3.69610172E-17
  0.451999992      -2.25640445E-17
  0.453000009      -6.80785567E-18
  0.453999996       9.82239341E-18
  0.455000013       2.67852828E-17
  0.456000000       4.34994200E-17
  0.456999987       5.93621402E-17
  0.458000004       7.37700846E-17
  0.458999991       8.61410273E-17
  0.460000008       9.59361957E-17
  0.460999995       1.02682370E-16
  0.462000012       1.05992859E-16
  0.463000000       1.05586601E-16
  0.463999987       1.01304466E-16
  0.465000004       9.31221140E-17
  0.465999991       8.11586339E-17
  0.467000008       6.56804303E-17
  0.467999995       4.70998560E-17
  0.469000012       2.59684387E-17
  0.469999999       2.96447097E-18
  0.470999986      -2.11248098E-17
  0.472000003      -4.54262215E-17
  0.472999990      -6.90082242E-17
  0.474000007      -9.09124036E-17
  0.474999994      -1.10187929E-16
  0.476000011      -1.25927899E-16
  0.476999998      -1.37306277E-16
  0.477999985      -1.43614251E-16
  0.479000002      -1.44294458E-16
  0.479999989      -1.38971756E-16
  0.481000006      -1.27479239E-16
  0.481999993      -1.09878087E-16
  0.483000010      -8.64702319E-17
  0.483999997      -5.78028783E-17
  0.485000014      -2.46641337E-17
  0.486000001       1.19305616E-17
  0.486999989       5.07614041E-17
  0.488000005       9.04363247E-17
  0.488999993       1.29431624E-16
  0.490000010       1.66140205E-16
  0.490999997       1.98926191E-16
  0.492000014       2.26184187E-16
  0.493000001       2.46401593E-16
  0.493999988       2.58221488E-16
  0.495000005       2.60504374E-16
  0.495999992       2.52385854E-16
  0.497000009       2.33328381E-16
  0.497999996       2.03164426E-16
  0.499000013       1.62129253E-16
  0.500000000       1.10881212E-16
  0.500999987       5.05080651E-17
  0.501999974      -1.74817823E-17
  0.503000021      -9.11837916E-17
  0.504000008      -1.68337779E-16
  0.504999995      -2.46383911E-16
  0.505999982      -3.22533285E-16
  0.507000029      -3.93851342E-16
  0.508000016      -4.57352211E-16
  0.509000003      -5.10101293E-16
  0.509999990      -5.49322836E-16
  0.510999978      -5.72509093E-16
  0.512000024      -5.77527604E-16
  0.513000011      -5.62722050E-16
  0.513999999      -5.27003624E-16
  0.514999986      -4.69928162E-16
  0.515999973      -3.91756391E-16
  0.517000020      -2.93493369E-16
  0.518000007      -1.76905002E-16
  0.518999994      -4.45092355E-17
  0.519999981       1.00458968E-16
  0.521000028       2.54109540E-16
  0.522000015       4.11985444E-16
  0.523000002       5.69175647E-16
  0.523999989       7.20450650E-16
  0.524999976       8.60416915E-16
  0.526000023       9.83686678E-16
  0.527000010       1.08505768E-15
  0.527999997       1.15969769E-15
  0.528999984       1.20332762E-15
  0.529999971       1.21239690E-15
  0.531000018       1.18424555E-15
  0.532000005       1.11724535E-15
  0.532999992       1.01091529E-15
  0.533999979       8.66006062E-16
  0.535000026       6.84548417E-16
  0.536000013       4.69861987E-16
  0.537000000       2.26522736E-16
  0.537999988      -3.97128486E-17
  0.538999975      -3.22026230E-16
  0.540000021      -6.12696147E-16
  0.541000009      -9.03295734E-16
  0.541999996      -1.18492339E-15
  0.542999983      -1.44846033E-15
  0.544000030      -1.68484933E-15
  0.545000017      -1.88538438E-15
  0.546000004      -2.04200501E-15
  0.546999991      -2.14758343E-15
  0.547999978      -2.19619634E-15
  0.549000025      -2.18337057E-15
  0.550000012      -2.10629481E-15
  0.550999999      -1.96398819E-15
  0.551999986      -1.75741761E-15
  0.552999973      -1.48955900E-15
  0.554000020      -1.16539706E-15
  0.555000007      -7.91861192E-16
  0.555999994      -3.77697232E-16
  0.556999981       6.67244579E-17
  0.558000028       5.29660396E-16
  0.559000015       9.98299479E-16
  0.560000002       1.45911431E-15
  0.560999990       1.89825060E-15
  0.561999977       2.30194205E-15
  0.563000023       2.65693801E-15
  0.564000010       2.95093298E-15
  0.564999998       3.17298224E-15
  0.565999985       3.31388999E-15
  0.566999972       3.36655744E-15
  0.568000019       3.32627700E-15
  0.569000006       3.19096242E-15
  0.569999993       2.96130511E-15
  0.570999980       2.64084671E-15
  0.572000027       2.23596708E-15
  0.573000014       1.75578061E-15
  0.574000001       1.21194427E-15
  0.574999988       6.18379527E-16
  0.575999975      -9.08601489E-18
  0.577000022      -6.53148059E-16
  0.578000009      -1.29551466E-15
  0.578999996      -1.91744076E-15
  0.579999983      -2.50029303E-15
  0.580999970      -3.02612770E-15
  0.582000017      -3.47826245E-15
  0.583000004      -3.84182551E-15
  0.583999991      -4.10426215E-15
  0.584999979      -4.25578067E-15
  0.586000025      -4.28972509E-15
  0.587000012      -4.20285509E-15
  0.588000000      -3.99552853E-15
  0.588999987      -3.67177136E-15
  0.589999974      -3.23923398E-15
  0.591000021      -2.70903223E-15
  0.592000008      -2.09547227E-15
  0.592999995      -1.41566914E-15
  0.593999982      -6.89065220E-16
  0.595000029       6.31349904E-17
  0.596000016       8.18600222E-16
  0.597000003       1.55455734E-15
  0.597999990       2.24850507E-15
  0.598999977       2.87893454E-15
  0.600000024       3.42603228E-15
  0.601000011       3.87234326E-15
  0.601999998       4.20337220E-15
  0.602999985       4.40809752E-15
  0.603999972       4.47938551E-15
  0.605000019       4.41428637E-15
  0.606000006       4.21419559E-15
  0.606999993       3.88487892E-15
  0.607999980       3.43635422E-15
  0.609000027       2.88262973E-15
  0.610000014       2.24130635E-15
  0.611000001       1.53305213E-15
  0.611999989       7.80966177E-16
  0.612999976       9.84787553E-18
  0.614000022      -7.54603865E-16
  0.615000010      -1.48663801E-15
  0.615999997      -2.16131743E-15
  0.616999984      -2.75537510E-15
  0.617999971      -3.24803106E-15
  0.619000018      -3.62174305E-15
  0.620000005      -3.86286284E-15
  0.620999992      -3.96217576E-15
  0.621999979      -3.91529926E-15
  0.623000026      -3.72292876E-15
  0.624000013      -3.39091302E-15
  0.625000000      -2.93015738E-15
  0.625999987      -2.35635100E-15
  0.626999974      -1.68952379E-15
  0.628000021      -9.53443896E-16
  0.629000008      -1.74871659E-16
  0.629999995       6.17308506E-16
  0.630999982       1.39305145E-15
  0.632000029       2.12218049E-15
  0.633000016       2.77545020E-15
  0.634000003       3.32560466E-15
  0.634999990       3.74839989E-15
  0.635999978       4.02355050E-15
  0.637000024       4.13556976E-15
  0.638000011       4.07446819E-15
  0.638999999       3.83628718E-15
  0.639999986       3.42343951E-15
  0.640999973       2.84484401E-15
  0.642000020       2.11584129E-15
  0.643000007       1.25788511E-15
  0.643999994       2.98015705E-16
  0.644999981      -7.31877071E-16
  0.646000028      -1.79598238E-15
  0.647000015      -2.85566380E-15
  0.648000002      -3.87069027E-15
  0.648999989      -4.80056812E-15
  0.649999976      -5.60593128E-15
  0.651000023      -6.24994737E-15
  0.652000010      -6.69969349E-15
  0.652999997      -6.92745430E-15
  0.653999984      -6.91189854E-15
  0.654999971      -6.63908956E-15
  0.656000018      -6.10329167E-15
  0.657000005      -5.30753936E-15
  0.657999992      -4.26393760E-15
  0.658999979      -2.99368146E-15
  0.660000026      -1.52677435E-15
  0.661000013       9.85489548E-17
  0.662000000       1.83669375E-15
  0.662999988       3.63585039E-15
  0.663999975       5.43938936E-15
  0.665000021       7.18747182E-15
  0.666000009       8.81883017E-15
  0.666999996       1.02726733E-14
  0.667999983       1.14906567E-14
  0.669000030       1.24188616E-14
  0.670000017       1.30097230E-14
  0.671000004       1.32238377E-14
  0.671999991       1.30316010E-14
  0.672999978       1.24146028E-14
  0.674000025       1.13667442E-14
  0.675000012       9.89501771E-15
  0.675999999       8.01992055E-15
  0.676999986       5.77547001E-15
  0.677999973       3.20880983E-15
  0.679000020       3.79398260E-16
  0.680000007      -2.64221192E-15
  0.680999994      -5.77597950E-15
  0.681999981      -8.93433666E-15
  0.683000028      -1.20244543E-14
  0.684000015      -1.49507685E-14
  0.685000002      -1.76176856E-14
  0.685999990      -1.99324064E-14
  0.686999977      -2.18077899E-14
  0.688000023      -2.31651517E-14
  0.689000010      -2.39369529E-14
  0.689999998      -2.40692527E-14
  0.690999985      -2.35238769E-14
  0.691999972      -2.22802174E-14
  0.693000019      -2.03365834E-14
  0.694000006      -1.77110710E-14
  0.694999993      -1.44419016E-14
  0.695999980      -1.05871868E-14
  0.697000027      -6.22412685E-15
  0.698000014      -1.44763352E-15
  0.699000001       3.63160125E-15
  0.699999988       8.88955318E-15
  0.700999975       1.41917795E-14
  0.702000022       1.93967275E-14
  0.703000009       2.43593665E-14
  0.703999996       2.89350351E-14
  0.704999983       3.29834223E-14
  0.705999970       3.63725671E-14
  0.707000017       3.89827398E-14
  0.708000004       4.07101551E-14
  0.708999991       4.14703265E-14
  0.709999979       4.12010446E-14
  0.711000025       3.98647993E-14
  0.712000012       3.74506402E-14
  0.713000000       3.39753589E-14
  0.713999987       2.94839565E-14
  0.714999974       2.40493728E-14
  0.716000021       1.77714560E-14
  0.717000008       1.07751739E-14
  0.717999995       3.20812479E-15
  0.718999982      -4.76263629E-15
  0.720000029      -1.29543550E-14
  0.721000016      -2.11728574E-14
  0.722000003      -2.92172224E-14
  0.722999990      -3.68847443E-14
  0.723999977      -4.39760567E-14
  0.725000024      -5.03002859E-14
  0.726000011      -5.56800869E-14
  0.726999998      -5.99564276E-14
  0.727999985      -6.29930000E-14
  0.728999972      -6.46801338E-14
  0.730000019      -6.49380723E-14
  0.731000006      -6.37195713E-14
  0.731999993      -6.10116748E-14
  0.732999980      -5.68366765E-14
  0.734000027      -5.12521883E-14
  0.735000014      -4.43503131E-14
  0.736000001      -3.62559612E-14
  0.736999989      -2.71243023E-14
  0.737999976      -1.71374518E-14
  0.739000022      -6.50045271E-15
  0.740000010       4.56334172E-15
  0.740999997       1.58173696E-14
  0.741999984       2.70173203E-14
  0.742999971       3.79167895E-14
  0.744000018       4.82730514E-14
  0.745000005       5.78526823E-14
  0.745999992       6.64370563E-14
  0.746999979       7.38273985E-14
  0.748000026       7.98494368E-14
  0.749000013       8.43573800E-14
  0.750000000       8.72372920E-14
  0.750999987       8.84096263E-14
  0.751999974       8.78309944E-14
  0.753000021       8.54950334E-14
  0.754000008       8.14324736E-14
  0.754999995       7.57102578E-14
  0.755999982       6.84299487E-14
  0.757000029       5.97252960E-14
  0.758000016       4.97591606E-14
  0.759000003       3.87198106E-14
  0.759999990       2.68167277E-14
  0.760999978       1.42760187E-14
  0.762000024       1.33557191E-15
  0.763000011      -1.17599573E-14
  0.763999999      -2.47641737E-14
  0.764999986      -3.74339028E-14
  0.765999973      -4.95339413E-14
  0.767000020      -6.08415363E-14
  0.768000007      -7.11504762E-14
  0.768999994      -8.02747151E-14
  0.769999981      -8.80515347E-14
  0.771000028      -9.43440950E-14
  0.772000015      -9.90434609E-14
  0.773000002      -1.02069998E-13
  0.773999989      -1.03374212E-13
  0.774999976      -1.02936994E-13
  0.776000023      -1.00769307E-13
  0.777000010      -9.69114247E-14
  0.777999997      -9.14316298E-14
  0.778999984      -8.44245328E-14
  0.779999971      -7.60090436E-14
  0.781000018      -6.63259866E-14
  0.782000005      -5.55355085E-14
  0.782999992      -4.38142496E-14
  0.783999979      -3.13523655E-14
  0.785000026      -1.83504538E-14
  0.786000013      -5.01639593E-15
  0.787000000       8.43782458E-15
  0.787999988       2.17993060E-14
  0.788999975       3.48573811E-14
  0.790000021       4.74066959E-14
  0.791000009       5.92502325E-14
  0.791999996       7.02022194E-14
  0.792999983       8.00908547E-14
  0.794000030       8.87609417E-14
  0.795000017       9.60762909E-14
  0.796000004       1.01921916E-13
  0.796999991       1.06205965E-13
  0.797999978       1.08861366E-13
  0.799000025       1.09847163E-13
  0.800000012       1.09149452E-13
  0.800999999       1.06781934E-13
  0.801999986       1.02786039E-13
  0.802999973       9.72305596E-14
  0.804000020       9.02108114E-14
  0.805000007       8.18472623E-14
  0.805999994       7.22836504E-14
  0.806999981       6.16845848E-14
  0.808000028       5.02326723E-14
  0.809000015       3.81251630E-14
  0.810000002       2.55701967E-14
  0.810999990       1.27827013E-14
  0.811999977      -1.99577109E-17
  0.813000023      -1.26225053E-14
  0.814000010      -2.48163374E-14
  0.814999998      -3.64040395E-14
  0.815999985      -4.72037333E-14
  0.816999972      -5.70531103E-14
  0.818000019      -6.58130099E-14
  0.819000006      -7.33704750E-14
  0.819999993      -7.96411548E-14
  0.820999980      -8.45709069E-14
  0.822000027      -8.81366242E-14
  0.823000014      -9.03461672E-14
  0.824000001      -9.12373882E-14
  0.824999988      -9.08762879E-14
  0.825999975      -8.93542917E-14
  0.827000022      -8.67847528E-14
  0.828000009      -8.32987650E-14
  0.828999996      -7.90403780E-14
  0.829999983      -7.41614208E-14
  0.830999970      -6.88161008E-14
  0.832000017      -6.31554813E-14
  0.833000004      -5.73221416E-14
  0.833999991      -5.14451390E-14
  0.834999979      -4.56355196E-14
  0.836000025      -3.99824996E-14
  0.837000012      -3.45505281E-14
  0.838000000      -2.93773591E-14
  0.838999987      -2.44731925E-14
  0.839999974      -1.98210080E-14
  0.841000021      -1.53780695E-14
  0.842000008      -1.10786006E-14
  0.842999995      -6.83755700E-15
  0.843999982      -2.55537283E-15
  0.845000029       1.87645030E-15
  0.846000016       6.56912802E-15
  0.847000003       1.16299716E-14
  0.847999990       1.71555986E-14
  0.848999977       2.32252572E-14
  0.850000024       2.98945506E-14
  0.851000011       3.71897879E-14
  0.851999998       4.51032881E-14
  0.852999985       5.35898061E-14
  0.853999972       6.25643268E-14
  0.855000019       7.19013811E-14
  0.856000006       8.14359498E-14