   0.00000000       0.00000000    
   1.00000005E-03   0.00000000    
   2.00000009E-03   0.00000000    
   3.00000003E-03   0.00000000    
   4.00000019E-03   5.77159151E-18
   4.99999989E-03   5.06703083E-17
   6.00000005E-03   2.45740034E-16
   7.00000022E-03   8.68917896E-16
   8.00000038E-03   2.49884397E-15
   8.99999961E-03   6.18974620E-15
   9.99999978E-03   1.36718385E-14
   1.09999999E-02   2.75479628E-14
   1.20000001E-02   5.14435601E-14
   1.30000003E-02   9.00557230E-14
   1.40000004E-02   1.49039947E-13
   1.49999997E-02   2.34673256E-13
   1.60000008E-02   3.53239302E-13
   1.70000009E-02   5.10100100E-13
   1.79999992E-02   7.08443666E-13
   1.89999994E-02   9.47735813E-13
   1.99999996E-02   1.22194507E-12
   2.09999997E-02   1.51765915E-12
   2.19999999E-02   1.81225911E-12
   2.30000000E-02   2.07236116E-12
   2.40000002E-02   2.25276959E-12
   2.50000004E-02   2.29621487E-12
   2.60000005E-02   2.13412751E-12
   2.70000007E-02   1.68871254E-12
   2.80000009E-02   8.76493214E-13
   2.89999992E-02  -3.86523550E-13
   2.99999993E-02  -2.17807586E-12
   3.09999995E-02  -4.56138686E-12
   3.20000015E-02  -7.57563109E-12
   3.29999998E-02  -1.12256159E-11
   3.40000018E-02  -1.54711573E-11
   3.50000001E-02  -2.02170312E-11
   3.59999985E-02  -2.53041147E-11
   3.70000005E-02  -3.05028815E-11
   3.79999988E-02  -3.55100879E-11
   3.90000008E-02  -3.99496200E-11
   3.99999991E-02  -4.33783669E-11
   4.10000011E-02  -4.52977968E-11
   4.19999994E-02  -4.51717448E-11
   4.30000015E-02  -4.24503800E-11
   4.39999998E-02  -3.66002784E-11
   4.50000018E-02  -2.71398425E-11
   4.60000001E-02  -1.36789529E-11
   4.69999984E-02   4.03873332E-12
   4.80000004E-02   2.60929715E-11
   4.89999987E-02   5.23457840E-11
   5.00000007E-02   8.24049093E-11
   5.09999990E-02   1.15594700E-10
   5.20000011E-02   1.50937304E-10
   5.29999994E-02   1.87147089E-10
   5.40000014E-02   2.22640559E-10
   5.49999997E-02   2.55564347E-10
   5.60000017E-02   2.83841811E-10
   5.70000000E-02   3.05239334E-10
   5.79999983E-02   3.17451898E-10
   5.90000004E-02   3.18205406E-10
   5.99999987E-02   3.05374392E-10
   6.10000007E-02   2.77109474E-10
   6.19999990E-02   2.31971595E-10
   6.30000010E-02   1.69064471E-10
   6.40000030E-02   8.81605969E-11
   6.49999976E-02  -1.01875426E-11
   6.59999996E-02  -1.24558863E-10
   6.70000017E-02  -2.52604132E-10
   6.80000037E-02  -3.91023158E-10
   6.89999983E-02  -5.35584632E-10
   7.00000003E-02  -6.81191714E-10
   7.10000023E-02  -8.21997748E-10
   7.19999969E-02  -9.51570378E-10
   7.29999989E-02  -1.06310538E-09
   7.40000010E-02  -1.14968146E-09
   7.50000030E-02  -1.20455290E-09
   7.59999976E-02  -1.22146737E-09
   7.69999996E-02  -1.19499766E-09
   7.80000016E-02  -1.12087561E-09
   7.90000036E-02  -9.96306815E-10
   7.99999982E-02  -8.20258417E-10
   8.10000002E-02  -5.93694205E-10
   8.20000023E-02  -3.19747201E-10
   8.29999968E-02  -3.81362433E-12
   8.39999989E-02   3.46444595E-10
   8.50000009E-02   7.21199434E-10
   8.60000029E-02   1.10865639E-09
   8.69999975E-02   1.49536661E-09
   8.79999995E-02   1.86663507E-09
   8.90000015E-02   2.20702434E-09
   9.00000036E-02   2.50093457E-09
   9.09999982E-02   2.73324274E-09
   9.20000002E-02   2.88997470E-09
   9.30000022E-02   2.95898528E-09
   9.39999968E-02   2.93061642E-09
   9.49999988E-02   2.79829404E-09
   9.60000008E-02   2.55904586E-09
   9.70000029E-02   2.21389995E-09
   9.79999974E-02   1.76813886E-09
   9.89999995E-02   1.23138655E-09
  0.100000001       6.17515539E-10
  0.101000004      -5.56396006E-11
  0.101999998      -7.66760044E-10
  0.103000000      -1.49170587E-09
  0.104000002      -2.20434804E-09
  0.104999997      -2.87753754E-09
  0.105999999      -3.48418738E-09
  0.107000001      -3.99841449E-09
  0.108000003      -4.39669812E-09
  0.108999997      -4.65900385E-09
  0.109999999      -4.76982187E-09
  0.111000001      -4.71905448E-09
  0.112000003      -4.50271864E-09
  0.112999998      -4.12340784E-09
  0.114000000      -3.59048458E-09
  0.115000002      -2.91997115E-09
  0.115999997      -2.13413931E-09
  0.116999999      -1.26078337E-09
  0.118000001      -3.32204070E-10
  0.119000003       6.16060314E-10
  0.119999997       1.54671964E-09
  0.120999999       2.42237364E-09
  0.122000001       3.20722626E-09
  0.123000003       3.86882260E-09
  0.123999998       4.37967174E-09
  0.125000000       4.71874184E-09
  0.126000002       4.87267782E-09
  0.127000004       4.83669726E-09
  0.128000006       4.61511673E-09
  0.128999993       4.22142188E-09
  0.129999995       3.67787822E-09
  0.130999997       3.01467096E-09
  0.131999999       2.26858976E-09
  0.133000001       1.48128376E-09
  0.134000003       6.97175428E-10
  0.135000005      -3.88912201E-11
  0.136000007      -6.84174550E-10
  0.136999995      -1.20058496E-09
  0.137999997      -1.55714219E-09
  0.138999999      -1.73219872E-09
  0.140000001      -1.71531378E-09
  0.141000003      -1.50860113E-09
  0.142000005      -1.12750698E-09
  0.143000007      -6.00863748E-10
  0.143999994       2.97725698E-11
  0.144999996       7.11583126E-10
  0.145999998       1.38270040E-09
  0.147000000       1.97510830E-09
  0.148000002       2.41819920E-09
  0.149000004       2.64275868E-09
  0.150000006       2.58527311E-09
  0.150999993       2.19236762E-09
  0.151999995       1.42510304E-09
  0.152999997       2.62912747E-10
  0.153999999      -1.29298017E-09
  0.155000001      -3.21704485E-09
  0.156000003      -5.45788481E-09
  0.157000005      -7.93791965E-09
  0.158000007      -1.05543396E-08
  0.158999994      -1.31815217E-08
  0.159999996      -1.56748250E-08
  0.160999998      -1.78757595E-08
  0.162000000      -1.96184011E-08
  0.163000003      -2.07368469E-08
  0.164000005      -2.10734594E-08
  0.165000007      -2.04875636E-08
  0.165999994      -1.88642471E-08
  0.166999996      -1.61228257E-08
  0.167999998      -1.22245867E-08
  0.169000000      -7.17935134E-09
  0.170000002      -1.05039677E-09
  0.171000004       6.04247763E-09
  0.172000006       1.39222447E-08
  0.172999993       2.23564509E-08
  0.173999995       3.10616457E-08
  0.174999997       3.97104749E-08
  0.175999999       4.79415334E-08
  0.177000001       5.53713555E-08
  0.178000003       6.16087448E-08
  0.179000005       6.62705943E-08
  0.180000007       6.89987374E-08
  0.180999994       6.94773661E-08
  0.181999996       6.74500029E-08
  0.182999998       6.27355021E-08
  0.184000000       5.52422605E-08
  0.185000002       4.49798776E-08
  0.186000004       3.20674189E-08
  0.187000006       1.67380332E-08
  0.187999994      -6.60899335E-10
  0.188999996      -1.96722514E-08
  0.189999998      -3.97384348E-08
  0.191000000      -6.02155055E-08
  0.192000002      -8.03917928E-08
  0.193000004      -9.95106433E-08
  0.194000006      -1.16796656E-07
  0.194999993      -1.31484498E-07
  0.195999995      -1.42849174E-07
  0.196999997      -1.50237227E-07
  0.197999999      -1.53096678E-07
  0.199000001      -1.51005381E-07
  0.200000003      -1.43695701E-07
  0.201000005      -1.31075154E-07
  0.202000007      -1.13241015E-07
  0.202999994      -9.04888466E-08
  0.203999996      -6.33132586E-08
  0.204999998      -3.24014273E-08
  0.206000000       1.38154144E-09
  0.207000002       3.70150168E-08
  0.208000004       7.33525809E-08
  0.209000006       1.09158243E-07
  0.209999993       1.43148171E-07
  0.210999995       1.74036728E-07
  0.211999997       2.00584651E-07
  0.213000000       2.21648463E-07
  0.214000002       2.36228175E-07
  0.215000004       2.43512488E-07
  0.216000006       2.42918304E-07
  0.216999993       2.34123831E-07
  0.217999995       2.17093145E-07
  0.218999997       1.92090610E-07
  0.219999999       1.59684475E-07
  0.221000001       1.20739230E-07
  0.222000003       7.63957004E-08
  0.223000005       2.80397856E-08
  0.224000007      -2.27394974E-08
  0.224999994      -7.42018926E-08
  0.225999996      -1.24515637E-07
  0.226999998      -1.71823245E-07
  0.228000000      -2.14311186E-07
  0.229000002      -2.50280380E-07
  0.230000004      -2.78215083E-07
  0.231000006      -2.96847844E-07
  0.231999993      -3.05216844E-07
  0.232999995      -3.02713516E-07
  0.233999997      -2.89118759E-07
  0.234999999      -2.64624845E-07
  0.236000001      -2.29842584E-07
  0.237000003      -1.85791890E-07
  0.238000005      -1.33876583E-07
  0.238999993      -7.58433103E-08
  0.239999995      -1.37253027E-08
  0.240999997       5.02266317E-08
  0.241999999       1.13624012E-07
  0.243000001       1.74028841E-07
  0.244000003       2.29046421E-07
  0.245000005       2.76419541E-07
  0.246000007       3.14120513E-07
  0.246999994       3.40436856E-07
  0.247999996       3.54047785E-07
  0.248999998       3.54087149E-07
  0.250000000       3.40191065E-07
  0.250999987       3.12527163E-07
  0.252000004       2.71803430E-07
  0.252999991       2.19256492E-07
  0.254000008       1.56618782E-07
  0.254999995       8.60649152E-08
  0.256000012       1.01393320E-08
  0.256999999      -6.83327315E-08
  0.257999986      -1.46348071E-07
  0.259000003      -2.20838132E-07
  0.259999990      -2.88787533E-07
  0.261000007      -3.47353506E-07
  0.261999995      -3.93982532E-07
  0.263000011      -4.26518028E-07
  0.263999999      -4.43295647E-07
  0.264999986      -4.43222319E-07
  0.266000003      -4.25833747E-07
  0.266999990      -3.91329877E-07
  0.268000007      -3.40584052E-07
  0.268999994      -2.75126979E-07
  0.270000011      -1.97103546E-07
  0.270999998      -1.09204763E-07
  0.272000015      -1.45761723E-08
  0.273000002       8.32931804E-08
  0.273999989       1.80698933E-07
  0.275000006       2.73860593E-07
  0.275999993       3.59067229E-07
  0.277000010       4.32824038E-07
  0.277999997       4.91993376E-07
  0.279000014       5.33926254E-07
  0.280000001       5.56575799E-07
  0.280999988       5.58591694E-07
  0.282000005       5.39387884E-07
  0.282999992       4.99183102E-07
  0.284000009       4.39009682E-07
  0.284999996       3.60691786E-07
  0.286000013       2.66791375E-07
  0.287000000       1.60525175E-07
  0.287999988       4.56534295E-08
  0.289000005      -7.36534034E-08
  0.289999992      -1.92967917E-07
  0.291000009      -3.07770762E-07
  0.291999996      -4.13622672E-07
  0.293000013      -5.06336903E-07
  0.294000000      -5.82144253E-07
  0.294999987      -6.37844437E-07
  0.296000004      -6.70939642E-07
  0.296999991      -6.79740708E-07
  0.298000008      -6.63445405E-07
  0.298999995      -6.22182768E-07
  0.300000012      -5.57022759E-07
  0.300999999      -4.69948930E-07
  0.301999986      -3.63796232E-07
  0.303000003      -2.42154840E-07
  0.303999990      -1.09243729E-07
  0.305000007       3.02413703E-08
  0.305999994       1.71299959E-07
  0.307000011       3.08812673E-07
  0.307999998       4.37732723E-07
  0.308999985       5.53277744E-07
  0.310000002       6.51111463E-07
  0.310999990       7.27511065E-07
  0.312000006       7.79510970E-07
  0.312999994       8.05019965E-07
  0.314000010       8.02904253E-07
  0.314999998       7.73034287E-07
  0.316000015       7.16293812E-07
  0.317000002       6.34549792E-07
  0.317999989       5.30584828E-07
  0.319000006       4.07992729E-07
  0.319999993       2.71045280E-07
  0.321000010       1.24530871E-07
  0.321999997      -2.64258979E-08
  0.323000014      -1.76557222E-07
  0.324000001      -3.20650628E-07
  0.324999988      -4.53744377E-07
  0.326000005      -5.71312796E-07
  0.326999992      -6.69433234E-07
  0.328000009      -7.44929707E-07
  0.328999996      -7.95485391E-07
  0.330000013      -8.19721606E-07
  0.331000000      -8.17239311E-07
  0.331999987      -7.88621946E-07
  0.333000004      -7.35399112E-07
  0.333999991      -6.59974660E-07
  0.335000008      -5.65519201E-07
  0.335999995      -4.55835362E-07
  0.337000012      -3.35198990E-07
  0.338000000      -2.08183408E-07
  0.338999987      -7.94746313E-08
  0.340000004       4.63144936E-08
  0.340999991       1.64824868E-07
  0.342000008       2.72117887E-07
  0.342999995       3.64821830E-07
  0.344000012       4.40252307E-07
  0.344999999       4.96501741E-07
  0.345999986       5.32495108E-07
  0.347000003       5.48009098E-07
  0.347999990       5.43655403E-07
  0.349000007       5.20827655E-07
  0.349999994       4.81618827E-07
  0.351000011       4.28707125E-07
  0.351999998       3.65220671E-07
  0.352999985       2.94586016E-07
  0.354000002       2.20365450E-07
  0.354999989       1.46093441E-07
  0.356000006       7.51168088E-08
  0.356999993       1.04477600E-08
  0.358000010      -4.53646720E-08
  0.358999997      -9.03400235E-08
  0.360000014      -1.23141632E-07
  0.361000001      -1.43121625E-07
  0.361999989      -1.50331942E-07
  0.363000005      -1.45502099E-07
  0.363999993      -1.29984329E-07
  0.365000010      -1.05670019E-07
  0.365999997      -7.48812425E-08
  0.367000014      -4.02415168E-08
  0.368000001      -4.53415527E-09
  0.368999988       2.94466922E-08
  0.370000005       5.90444849E-08
  0.370999992       8.18812396E-08
  0.372000009       9.59841913E-08
  0.372999996       9.98920626E-08
  0.374000013       9.27359380E-08
  0.375000000       7.42910444E-08
  0.375999987       4.49961490E-08
  0.377000004       5.93992322E-09
  0.377999991      -4.11845420E-08
  0.379000008      -9.41570661E-08
  0.379999995      -1.50333548E-07
  0.381000012      -2.06772171E-07
  0.381999999      -2.60375913E-07
  0.382999986      -3.08045287E-07
  0.384000003      -3.46833417E-07
  0.384999990      -3.74096629E-07
  0.386000007      -3.87633492E-07
  0.386999995      -3.85805237E-07
  0.388000011      -3.67631458E-07
  0.388999999      -3.32857070E-07
  0.389999986      -2.81986473E-07
  0.391000003      -2.16282672E-07
  0.391999990      -1.37731163E-07
  0.393000007      -4.89700938E-08
  0.393999994       4.68108894E-08
  0.395000011       1.45999380E-07
  0.395999998       2.44709639E-07
  0.397000015       3.38947899E-07
  0.398000002       4.24785014E-07
  0.398999989       4.98528493E-07
  0.400000006       5.56887699E-07
  0.400999993       5.97123233E-07
  0.402000010       6.17173555E-07
  0.402999997       6.15754118E-07
  0.404000014       5.92423532E-07
  0.405000001       5.47612501E-07
  0.405999988       4.82616713E-07
  0.407000005       3.99550544E-07
  0.407999992       3.01265032E-07
  0.409000009       1.91233468E-07
  0.409999996       7.34095380E-08
  0.411000013      -4.79368651E-08
  0.412000000      -1.68396852E-07
  0.412999988      -2.83607477E-07
  0.414000005      -3.89433751E-07
  0.414999992      -4.82141047E-07
  0.416000009      -5.58549800E-07
  0.416999996      -6.16165266E-07
  0.418000013      -6.53276459E-07
  0.419000000      -6.69020210E-07
  0.419999987      -6.63407491E-07
  0.421000004      -6.37308972E-07
  0.421999991      -5.92404035E-07
  0.423000008      -5.31092894E-07
  0.423999995      -4.56375744E-07
  0.425000012      -3.71707387E-07
  0.425999999      -2.80830449E-07
  0.426999986      -1.87598744E-07
  0.428000003      -9.57957269E-08
  0.428999990      -8.95950958E-09
  0.430000007       6.97792970E-08
  0.430999994       1.37837986E-07
  0.432000011       1.93294341E-07
  0.432999998       2.34965043E-07
  0.433999985       2.62447060E-07
  0.435000002       2.76119664E-07
  0.435999990       2.77105926E-07
  0.437000006       2.67196782E-07
  0.437999994       2.48740861E-07
  0.439000010       2.24504248E-07
  0.439999998       1.97509337E-07
  0.441000015       1.70856921E-07
  0.442000002       1.47545677E-07
  0.442999989       1.30292605E-07
  0.444000006       1.21367719E-07
  0.444999993       1.22448910E-07
  0.446000010       1.34506706E-07
  0.446999997       1.57723690E-07
  0.448000014       1.91455925E-07
  0.449000001       2.34234847E-07
  0.449999988       2.83816945E-07
  0.451000005       3.37273747E-07
  0.451999992       3.91122086E-07
  0.453000009       4.41490130E-07
  0.453999996       4.84309226E-07
  0.455000013       5.15523539E-07
  0.456000000       5.31310434E-07
  0.456999987       5.28298756E-07
  0.458000004       5.03771787E-07
  0.458999991       4.55852557E-07
  0.460000008       3.83650644E-07
  0.460999995       2.87374576E-07
  0.462000012       1.68391267E-07
  0.463000000       2.92363289E-08
  0.463999987      -1.26430621E-07
  0.465000004      -2.93925552E-07
  0.465999991      -4.67691763E-07
  0.467000008      -6.41497252E-07
  0.467999995      -8.08672780E-07
  0.469000012      -9.62379886E-07
  0.469999999      -1.09589723E-06
  0.470999986      -1.20291531E-06
  0.472000003      -1.27782323E-06
  0.472999990      -1.31598006E-06
  0.474000007      -1.31395132E-06
  0.474999994      -1.26970440E-06
  0.476000011      -1.18275204E-06
  0.476999998      -1.05423533E-06
  0.477999985      -8.86939574E-07
  0.479000002      -6.85242526E-07
  0.479999989      -4.54995615E-07
  0.481000006      -2.03339823E-07
  0.481999993       6.15382234E-08
  0.483000010       3.30699322E-07
  0.483999997       5.94783330E-07
  0.485000014       8.44366241E-07
  0.486000001       1.07033031E-06
  0.486999989       1.26422833E-06
  0.488000005       1.41862915E-06
  0.488999993       1.52743132E-06
  0.490000010       1.58612454E-06
  0.490999997       1.59199783E-06
  0.492000014       1.54427232E-06
  0.493000001       1.44416219E-06
  0.493999988       1.29485568E-06
  0.495000005       1.10141480E-06
  0.495999992       8.70598456E-07
  0.497000009       6.10616212E-07
  0.497999996       3.30820427E-07
  0.499000013       4.13478141E-08
  0.500000000      -2.47273533E-07
  0.500999987      -5.24534357E-07
  0.501999974      -7.80359471E-07
  0.503000021      -1.00550528E-06
  0.504000008      -1.19192839E-06
  0.504999995      -1.33310607E-06
  0.505999982      -1.42429337E-06
  0.507000029      -1.46271464E-06
  0.508000016      -1.44766830E-06
  0.509000003      -1.38055077E-06
  0.509999990      -1.26479244E-06
  0.510999978      -1.10570977E-06
  0.512000024      -9.10280392E-07
  0.513000011      -6.86849148E-07
  0.513999999      -4.44775878E-07
  0.514999986      -1.94043608E-07
  0.515999973       5.51597914E-08
  0.517000020       2.92866360E-07
  0.518000007       5.09744154E-07
  0.518999994       6.97481823E-07
  0.519999981       8.49133528E-07
  0.521000028       9.59398790E-07
  0.522000015       1.02483364E-06
  0.523000002       1.04398202E-06
  0.523999989       1.01741887E-06
  0.524999976       9.47704677E-07
  0.526000023       8.39255563E-07
  0.527000010       6.98133590E-07
  0.527999997       5.31762680E-07
  0.528999984       3.48585786E-07
  0.529999971       1.57682820E-07
  0.531000018      -3.16452642E-08
  0.532000005      -2.10296051E-07
  0.532999992      -3.69777069E-07
  0.533999979      -5.02591831E-07
  0.535000026      -6.02575767E-07
  0.536000013      -6.65180210E-07
  0.537000000      -6.87674060E-07
  0.537999988      -6.69269525E-07
  0.538999975      -6.11161227E-07
  0.540000021      -5.16472539E-07
  0.541000009      -3.90115247E-07
  0.541999996      -2.38568504E-07
  0.542999983      -6.95872302E-08
  0.544000030       1.08152335E-07
  0.545000017       2.85448039E-07
  0.546000004       4.52993618E-07
  0.546999991       6.01806846E-07
  0.547999978       7.23652363E-07
  0.549000025       8.11422012E-07
  0.550000012       8.59481077E-07
  0.550999999       8.63943455E-07
  0.551999986       8.22869765E-07
  0.552999973       7.36386255E-07
  0.554000020       6.06707317E-07
  0.555000007       4.38065825E-07
  0.555999994       2.36560155E-07
  0.556999981       9.90459004E-09
  0.558000028      -2.32881447E-07
  0.559000015      -4.81852283E-07
  0.560000002      -7.26557403E-07
  0.560999990      -9.56487725E-07
  0.561999977      -1.16153035E-06
  0.563000023      -1.33240951E-06
  0.564000010      -1.46109471E-06
  0.564999998      -1.54116060E-06
  0.565999985      -1.56807766E-06
  0.566999972      -1.53942790E-06
  0.568000019      -1.45502986E-06
  0.569000006      -1.31696686E-06
  0.569999993      -1.12952250E-06
  0.570999980      -8.99023632E-07
  0.572000027      -6.33590389E-07
  0.573000014      -3.42815497E-07
  0.574000001      -3.73771982E-08
  0.574999988       2.71393418E-07
  0.575999975       5.71972066E-07
  0.577000022       8.53114557E-07
  0.578000009       1.10430722E-06
  0.578999996       1.31620197E-06
  0.579999983       1.48098616E-06
  0.580999970       1.59270417E-06
  0.582000017       1.64747917E-06
  0.583000004       1.64367270E-06
  0.583999991       1.58191995E-06
  0.584999979       1.46510183E-06
  0.586000025       1.29819705E-06
  0.587000012       1.08806580E-06
  0.588000000       8.43140811E-07
  0.588999987       5.73071304E-07
  0.589999974       2.88308627E-07
  0.591000021      -3.30834971E-10
  0.592000008      -2.82119203E-07
  0.592999995      -5.46849833E-07
  0.593999982      -7.85251302E-07
  0.595000029      -9.89349815E-07
  0.596000016      -1.15277226E-06
  0.597000003      -1.27097189E-06
  0.597999990      -1.34137713E-06
  0.598999977      -1.36344147E-06
  0.600000024      -1.33861454E-06
  0.601000011      -1.27022429E-06
  0.601999998      -1.16327408E-06
  0.602999985      -1.02416959E-06
  0.603999972      -8.60398245E-07
  0.605000019      -6.80161520E-07
  0.606000006      -4.91978653E-07
  0.606999993      -3.04296577E-07
  0.607999980      -1.25104691E-07
  0.609000027       3.84163457E-08
  0.610000014       1.80198157E-07
  0.611000001       2.95531606E-07
  0.611999989       3.81244774E-07
  0.612999976       4.35795272E-07
  0.614000022       4.59285644E-07
  0.615000010       4.53400020E-07
  0.615999997       4.21261717E-07
  0.616999984       3.67219087E-07
  0.617999971       2.96586762E-07
  0.619000018       2.15321933E-07
  0.620000005       1.29699217E-07
  0.620999992       4.59496583E-08
  0.621999979      -3.00815195E-08
  0.623000026      -9.32409705E-08
  0.624000013      -1.39363337E-07
  0.625000000      -1.65480202E-07
  0.625999987      -1.69990486E-07
  0.626999974      -1.52739773E-07
  0.628000021      -1.15034474E-07
  0.629000008      -5.95678245E-08
  0.629999995       9.72363257E-09
  0.630999982       8.78693598E-08
  0.632000029       1.69140094E-07
  0.633000016       2.47362834E-07
  0.634000003       3.16252141E-07
  0.634999990       3.69776245E-07
  0.635999978       4.02507709E-07
  0.637000024       4.09940100E-07
  0.638000011       3.88759275E-07
  0.638999999       3.37096083E-07
  0.639999986       2.54670113E-07
  0.640999973       1.42866114E-07
  0.642000020       4.74304196E-09
  0.643000007      -1.55061983E-07
  0.643999994      -3.30495141E-07
  0.644999981      -5.14339661E-07
  0.646000028      -6.98520637E-07
  0.647000015      -8.74462216E-07
  0.648000002      -1.03349953E-06
  0.648999989      -1.16728268E-06
  0.649999976      -1.26818748E-06
  0.651000023      -1.32971195E-06
  0.652000010      -1.34683307E-06
  0.652999997      -1.31627837E-06
  0.653999984      -1.23675272E-06
  0.654999971      -1.10907922E-06
  0.656000018      -9.36212530E-07
  0.657000005      -7.23207734E-07
  0.657999992      -4.77046854E-07
  0.658999979      -2.06390553E-07
  0.660000026       7.87503893E-08
  0.661000013       3.67416163E-07
  0.662000000       6.48152479E-07
  0.662999988       9.09488108E-07
  0.663999975       1.14043883E-06
  0.665000021       1.33099877E-06
  0.666000009       1.47258947E-06
  0.666999996       1.55845078E-06
  0.667999983       1.58400007E-06
  0.669000030       1.54702525E-06
  0.670000017       1.44786668E-06
  0.671000004       1.28941997E-06
  0.671999991       1.07706433E-06
  0.672999978       8.18482818E-07
  0.674000025       5.23345591E-07
  0.675000012       2.02953615E-07
  0.675999999      -1.30252346E-07
  0.676999986      -4.63181209E-07
  0.677999973      -7.82648215E-07
  0.679000020      -1.07595338E-06
  0.680000007      -1.33141430E-06
  0.680999994      -1.53885765E-06
  0.681999981      -1.69010116E-06
  0.683000028      -1.77928769E-06
  0.684000015      -1.80316158E-06
  0.685000002      -1.76123808E-06
  0.685999990      -1.65580661E-06
  0.686999977      -1.49187383E-06
  0.688000023      -1.27694807E-06
  0.689000010      -1.02070805E-06
  0.689999998      -7.34624109E-07
  0.690999985      -4.31427310E-07
  0.691999972      -1.24560401E-07
  0.693000019       1.72387061E-07
  0.694000006       4.46305819E-07
  0.694999993       6.85122245E-07
  0.695999980       8.78373157E-07
  0.697000027       1.01763237E-06
  0.698000014       1.09693633E-06
  0.699000001       1.11301836E-06
  0.699999988       1.06550647E-06
  0.700999975       9.56899726E-07
  0.702000022       7.92529590E-07
  0.703000009       5.80281039E-07
  0.703999996       3.30282376E-07
  0.704999983       5.44311050E-08
  0.705999970      -2.34110644E-07
  0.707000017      -5.21535924E-07
  0.708000004      -7.93962613E-07
  0.708999991      -1.03813818E-06
  0.709999979      -1.24199516E-06
  0.711000025      -1.39522763E-06
  0.712000012      -1.48978654E-06
  0.713000000      -1.52025291E-06
  0.713999987      -1.48413517E-06
  0.714999974      -1.38199528E-06
  0.716000021      -1.21746461E-06
  0.717000008      -9.97135999E-07
  0.717999995      -7.30273371E-07
  0.718999982      -4.28454598E-07
  0.720000029      -1.05054497E-07
  0.721000016       2.25275684E-07
  0.722000003       5.47340903E-07
  0.722999990       8.45974398E-07
  0.723999977       1.10677536E-06
  0.725000024       1.31676290E-06
  0.726000011       1.46492562E-06
  0.726999998       1.54278894E-06
  0.727999985       1.54479073E-06
  0.728999972       1.46862146E-06
  0.730000019       1.31529964E-06
  0.731000006       1.08924962E-06
  0.731999993       7.98134465E-07
  0.732999980       4.52560784E-07
  0.734000027       6.56807657E-08
  0.735000014      -3.47337078E-07
  0.736000001      -7.69942403E-07
  0.736999989      -1.18485070E-06
  0.737999976      -1.57480235E-06
  0.739000022      -1.92330049E-06
  0.740000010      -2.21526443E-06
  0.740999997      -2.43775639E-06
  0.741999984      -2.58045634E-06
  0.742999971      -2.63619995E-06
  0.744000018      -2.60125967E-06
  0.745000005      -2.47557546E-06
  0.745999992      -2.26271595E-06
  0.746999979      -1.96984411E-06
  0.748000026      -1.60740706E-06
  0.749000013      -1.18871219E-06
  0.750000000      -7.29443002E-07
  0.750999987      -2.46984854E-07
  0.751999974       2.40227592E-07
  0.753000021       7.13514567E-07
  0.754000008       1.15466355E-06
  0.754999995       1.54667919E-06
  0.755999982       1.87448086E-06
  0.757000029       2.12551458E-06
  0.758000016       2.29024317E-06
  0.759000003       2.36253436E-06
  0.759999990       2.33987043E-06
  0.760999978       2.22347307E-06
  0.762000024       2.01821831E-06
  0.763000011       1.73242233E-06
  0.763999999       1.37745360E-06
  0.764999986       9.67298092E-07
  0.765999973       5.17934950E-07
  0.767000020       4.66919943E-08
  0.768000007      -4.28500982E-07
  0.768999994      -8.89796866E-07
  0.769999981      -1.32019329E-06
  0.771000028      -1.70417934E-06
  0.772000015      -2.02838123E-06
  0.773000002      -2.28202498E-06
  0.773999989      -2.45735669E-06
  0.774999976      -2.54992688E-06
  0.776000023      -2.55866280E-06
  0.777000010      -2.48588685E-06
  0.777999997      -2.33713786E-06
  0.778999984      -2.12081704E-06
  0.779999971      -1.84787382E-06
  0.781000018      -1.53120709E-06
  0.782000005      -1.18508444E-06
  0.782999992      -8.24556366E-07
  0.783999979      -4.64751480E-07
  0.785000026      -1.20197754E-07
  0.786000013       1.95704303E-07
  0.787000000       4.71270909E-07
  0.787999988       6.97043447E-07
  0.788999975       8.66032337E-07
  0.790000021       9.74046657E-07
  0.791000009       1.01978958E-06
  0.791999996       1.00474938E-06
  0.792999983       9.33137528E-07
  0.794000030       8.11575035E-07
  0.795000017       6.48750415E-07
  0.796000004       4.54952442E-07
  0.796999991       2.41493268E-07
  0.797999978       2.02034176E-08
  0.799000025      -1.97137794E-07
  0.800000012      -3.99325785E-07
  0.800999999      -5.76355660E-07
  0.801999986      -7.19787693E-07
  0.802999973      -8.23128346E-07
  0.804000020      -8.82093786E-07
  0.805000007      -8.94818754E-07
  0.805999994      -8.61813078E-07
  0.806999981      -7.86008400E-07
  0.808000028      -6.72421322E-07
  0.809000015      -5.28057626E-07
  0.810000002      -3.61312885E-07
  0.810999990      -1.81757429E-07
  0.811999977       4.87109408E-10
  0.813000023       1.75171294E-07
  0.814000010       3.32559978E-07
  0.814999998       4.63713860E-07
  0.815999985       5.61048637E-07
  0.816999972       6.18687295E-07
  0.818000019       6.32739443E-07
  0.819000006       6.01433385E-07
  0.819999993       5.25205849E-07
  0.820999980       4.06731829E-07
  0.822000027       2.50719523E-07
  0.823000014       6.36783213E-08
  0.824000001      -1.46349421E-07
  0.824999988      -3.70225195E-07
  0.825999975      -5.98151189E-07
  0.827000022      -8.20081652E-07
  0.828000009      -1.02625336E-06
  0.828999996      -1.20763161E-06
  0.829999983      -1.35634400E-06
  0.830999970      -1.46598688E-06
  0.832000017      -1.53193503E-06
  0.833000004      -1.55163013E-06
  0.833999991      -1.52452526E-06
  0.834999979      -1.45218053E-06
  0.836000025      -1.33818287E-06
  0.837000012      -1.18785886E-06
  0.838000000      -1.00811872E-06
  0.838999987      -8.07060189E-07
  0.839999974      -5.93468940E-07
  0.841000021      -3.76537116E-07
  0.842000008      -1.65347458E-07
  0.842999995       3.15546878E-08
  0.843999982       2.06559960E-07
  0.845000029       3.53351567E-07
  0.846000016       4.67170509E-07
  0.847000003       5.45018565E-07
  0.847999990       5.85827763E-07
  0.848999977       5.90355683E-07
  0.850000024       5.61215813E-07
  0.851000011       5.02644525E-07
  0.851999998       4.20256640E-07
  0.852999985       3.20685359E-07
  0.853999972       2.11347853E-07
  0.855000019       9.98332013E-08
  0.856000006      -6.45312515E-09