   0.00000000       0.00000000    
   1.00000005E-03   0.00000000    
   2.00000009E-03   0.00000000    
   3.00000003E-03   0.00000000    
   4.00000019E-03   0.00000000    
   4.99999989E-03   0.00000000    
   6.00000005E-03   0.00000000    
   7.00000022E-03   0.00000000    
   8.00000038E-03   0.00000000    
   8.99999961E-03   0.00000000    
   9.99999978E-03   0.00000000    
   1.09999999E-02  -9.89481509E-38
   1.20000001E-02  -1.90971878E-36
   1.30000003E-02  -1.58312127E-35
   1.40000004E-02  -7.60241443E-35
   1.49999997E-02  -3.06803520E-34
   1.60000008E-02  -1.10688460E-33
   1.70000009E-02  -3.62406819E-33
   1.79999992E-02  -1.09070851E-32
   1.89999994E-02  -3.04724870E-32
   1.99999996E-02  -7.96805966E-32
   2.09999997E-02  -1.96353683E-31
   2.19999999E-02  -4.58648743E-31
   2.30000000E-02  -1.02040753E-30
   2.40000002E-02  -2.17106885E-30
   2.50000004E-02  -4.43251723E-30
   2.60000005E-02  -8.70837135E-30
   2.70000007E-02  -1.65029913E-29
   2.80000009E-02  -3.02258575E-29
   2.89999992E-02  -5.35887961E-29
   2.99999993E-02  -9.20841935E-29
   3.09999995E-02  -1.53495822E-28
   3.20000015E-02  -2.48332801E-28
   3.29999998E-02  -3.89982734E-28
   3.40000018E-02  -5.94243855E-28
   3.50000001E-02  -8.77710891E-28
   3.59999985E-02  -1.25425119E-27
   3.70000005E-02  -1.72851981E-27
   3.79999988E-02  -2.28514342E-27
   3.90000008E-02  -2.87187220E-27
   3.99999991E-02  -3.37472538E-27
   4.10000011E-02  -3.58299737E-27
   4.19999994E-02  -3.14207439E-27
   4.30000015E-02  -1.49246157E-27
   4.39999998E-02   2.20556785E-27
   4.50000018E-02   9.16056868E-27
   4.60000001E-02   2.10479214E-26
   4.69999984E-02   4.01095403E-26
   4.80000004E-02   6.92424755E-26
   4.89999987E-02   1.12056977E-25
   5.00000007E-02   1.72876797E-25
   5.09999990E-02   2.56645665E-25
   5.20000011E-02   3.68694063E-25
   5.29999994E-02   5.14311672E-25
   5.40000014E-02   6.98062818E-25
   5.49999997E-02   9.22778130E-25
   5.60000017E-02   1.18815636E-24
   5.70000000E-02   1.48891856E-24
   5.79999983E-02   1.81247774E-24
   5.90000004E-02   2.13611779E-24
   5.99999987E-02   2.42372741E-24
   6.10000007E-02   2.62220402E-24
   6.19999990E-02   2.65772978E-24
   6.30000010E-02   2.43223626E-24
   6.40000030E-02   1.82050381E-24
   6.49999976E-02   6.68486993E-25
   6.59999996E-02  -1.20638664E-24
   6.70000017E-02  -4.01204835E-24
   6.80000037E-02  -7.97472505E-24
   6.89999983E-02  -1.33268552E-23
   7.00000003E-02  -2.02888446E-23
   7.10000023E-02  -2.90435582E-23
   7.19999969E-02  -3.97026689E-23
   7.29999989E-02  -5.22642911E-23
   7.40000010E-02  -6.65618491E-23
   7.50000030E-02  -8.22049041E-23
   7.59999976E-02  -9.85135683E-23
   7.69999996E-02  -1.14449366E-22
   7.80000016E-02  -1.28546790E-22
   7.90000036E-02  -1.38851396E-22
   7.99999982E-02  -1.42871962E-22
   8.10000002E-02  -1.37555961E-22
   8.20000023E-02  -1.19299372E-22
   8.29999968E-02  -8.40028317E-23
   8.39999989E-02  -2.71873685E-23
   8.50000009E-02   5.58170461E-23
   8.60000029E-02   1.69597749E-22
   8.69999975E-02   3.18289800E-22
   8.79999995E-02   5.05103725E-22
   8.90000015E-02   7.31748688E-22
   9.00000036E-02   9.97755817E-22
   9.09999982E-02   1.29971632E-21
   9.20000002E-02   1.63045861E-21
   9.30000022E-02   1.97820203E-21
   9.39999968E-02   2.32573845E-21
   9.49999988E-02   2.64970669E-21
   9.60000008E-02   2.92004167E-21
   9.70000029E-02   3.09969092E-21
   9.79999974E-02   3.14470421E-21
   9.89999995E-02   3.00481112E-21
  0.100000001       2.62459885E-21
  0.101000004       1.94540339E-21
  0.101999998       9.08011971E-22
  0.103000000      -5.43751447E-22
  0.104000002      -2.45851689E-21
  0.104999997      -4.87194679E-21
  0.105999999      -7.80047231E-21
  0.107000001      -1.12343317E-20
  0.108000003      -1.51301383E-20
  0.108999997      -1.94033065E-20
  0.109999999      -2.39207579E-20
  0.111000001      -2.84944302E-20
  0.112000003      -3.28762127E-20
  0.112999998      -3.67550144E-20
  0.114000000      -3.97567204E-20
  0.115000002      -4.14478524E-20
  0.115999997      -4.13437019E-20
  0.116999999      -3.89216913E-20
  0.118000001      -3.36405760E-20
  0.119000003      -2.49659103E-20
  0.119999997      -1.24019803E-20
  0.120999999       4.46994024E-21
  0.122000001       2.59475411E-20
  0.123000003       5.21586813E-20
  0.123999998       8.30093452E-20
  0.125000000       1.18130413E-19
  0.126000002       1.56825974E-19
  0.127000004       1.98026444E-19
  0.128000006       2.40250085E-19
  0.128999993       2.81577321E-19
  0.129999995       3.19642105E-19
  0.130999997       3.51645180E-19
  0.131999999       3.74393526E-19
  0.133000001       3.84370074E-19
  0.134000003       3.77837285E-19
  0.135000005       3.50976844E-19
  0.136000007       3.00066333E-19
  0.136999995       2.21692443E-19
  0.137999997       1.12997550E-19
  0.138999999      -2.80455264E-20
  0.140000001      -2.02338407E-19
  0.141000003      -4.09352402E-19
  0.142000005      -6.46827839E-19
  0.143000007      -9.10493417E-19
  0.143999994      -1.19382418E-18
  0.144999996      -1.48785938E-18
  0.145999998      -1.78110142E-18
  0.147000000      -2.05951884E-18
  0.148000002      -2.30667482E-18
  0.149000004      -2.50400062E-18
  0.150000006      -2.63123216E-18
  0.150999993      -2.66702096E-18
  0.151999995      -2.58972403E-18
  0.152999997      -2.37837194E-18
  0.153999999      -2.01380408E-18
  0.155000001      -1.47994812E-18
  0.156000003      -7.65211240E-19
  0.157000005       1.36062551E-19
  0.158000007       1.22212585E-18
  0.158999994       2.48241865E-18
  0.159999996       3.89630110E-18
  0.160999998       5.43200740E-18
  0.162000000       7.04591949E-18
  0.163000003       8.68225397E-18
  0.164000005       1.02732523E-17
  0.165000007       1.17399643E-17
  0.165999994       1.29936955E-17
  0.166999996       1.39381736E-17
  0.167999998       1.44724661E-17
  0.169000000       1.44946544E-17
  0.170000002       1.39062230E-17
  0.171000004       1.26170951E-17
  0.172000006       1.05512016E-17
  0.172999993       7.65241659E-18
  0.173999995       3.89065601E-18
  0.174999997      -7.32109229E-19
  0.175999999      -6.17622014E-18
  0.177000001      -1.23593927E-17
  0.178000003      -1.91528228E-17
  0.179000005      -2.63786805E-17
  0.180000007      -3.38093532E-17
  0.180999994      -4.11687758E-17
  0.181999996      -4.81360982E-17
  0.182999998      -5.43519701E-17
  0.184000000      -5.94275603E-17
  0.185000002      -6.29563723E-17
  0.186000004      -6.45287897E-17
  0.187000006      -6.37491554E-17
  0.187999994      -6.02550387E-17
  0.188999996      -5.37381855E-17
  0.189999998      -4.39665124E-17
  0.191000000      -3.08063368E-17
  0.192000002      -1.42439178E-17
  0.193000004       5.59475022E-18
  0.194000006       2.84270345E-17
  0.194999993       5.38008197E-17
  0.195999995       8.10869273E-17
  0.196999997       1.09477877E-16
  0.197999999       1.37994121E-16
  0.199000001       1.65498551E-16
  0.200000003       1.90719871E-16
  0.201000005       2.12285184E-16
  0.202000007       2.28761947E-16
  0.202999994       2.38708496E-16
  0.203999996       2.40732693E-16
  0.204999998       2.33557133E-16
  0.206000000       2.16089090E-16
  0.207000002       1.87493059E-16
  0.208000004       1.47263070E-16
  0.209000006       9.52917492E-17
  0.209999993       3.19327351E-17
  0.210999995      -4.19471527E-17
  0.211999997      -1.24929631E-16
  0.213000000      -2.15024105E-16
  0.214000002      -3.09667622E-16
  0.215000004      -4.05748422E-16
  0.216000006      -4.99655577E-16
  0.216999993      -5.87355992E-16
  0.217999995      -6.64499518E-16
  0.218999997      -7.26551616E-16
  0.219999999      -7.68951809E-16
  0.221000001      -7.87294837E-16
  0.222000003      -7.77529976E-16
  0.223000005      -7.36172905E-16
  0.224000007      -6.60523121E-16
  0.224999994      -5.48878356E-16
  0.225999996      -4.00737137E-16
  0.226999998      -2.16979560E-16
  0.228000000      -1.58686329E-20
  0.229000002       2.46107329E-16
  0.230000004       5.15652906E-16
  0.231000006       8.01200100E-16
  0.231999993       1.09372039E-15
  0.232999995       1.38272708E-15
  0.233999997       1.65650337E-15
  0.234999999       1.90240805E-15
  0.236000001       2.10725746E-15
  0.237000003       2.25777754E-15
  0.238000005       2.34111563E-15
  0.238999993       2.34540056E-15
  0.239999995       2.26033347E-15
  0.240999997       2.07778940E-15
  0.241999999       1.79240727E-15
  0.243000001       1.40214298E-15
  0.244000003       9.08761214E-16
  0.245000005       3.18234513E-16
  0.246000007      -3.58972457E-16
  0.246999994      -1.10776123E-15
  0.247999996      -1.90842240E-15
  0.248999998      -2.73684096E-15
  0.250000000      -3.56489909E-15
  0.250999987      -4.36108127E-15
  0.252000004      -5.09128338E-15
  0.252999991      -5.71981698E-15
  0.254000008      -6.21059338E-15
  0.254999995      -6.52845985E-15
  0.256000012      -6.64065445E-15
  0.256999999      -6.51833654E-15
  0.257999986      -6.13814157E-15
  0.259000003      -5.48370316E-15
  0.259999990      -4.54707996E-15
  0.261000007      -3.33002131E-15
  0.261999995      -1.84500462E-15
  0.263000011      -1.15980092E-16
  0.263999999       1.82123773E-15
  0.264999986       3.91898512E-15
  0.266000003       6.11821808E-15
  0.266999990       8.34945957E-15
  0.268000007       1.05342481E-14
  0.268999994       1.25870739E-14
  0.270000011       1.44178035E-14
  0.270999998       1.59345261E-14
  0.272000015       1.70467735E-14
  0.273000002       1.76690361E-14
  0.273999989       1.77244575E-14
  0.275000006       1.71485971E-14
  0.275999993       1.58931265E-14
  0.277000010       1.39293111E-14
  0.277999997       1.12511242E-14
  0.279000014       7.87784433E-15
  0.280000001       3.85598493E-15
  0.280999988      -7.39587453E-16
  0.282000005      -5.80546641E-15
  0.282999992      -1.12105471E-14
  0.284000009      -1.67979661E-14
  0.284999996      -2.23881853E-14
  0.286000013      -2.77832075E-14
  0.287000000      -3.27718809E-14
  0.287999988      -3.71362080E-14
  0.289000005      -4.06585166E-14
  0.289999992      -4.31293219E-14
  0.291000009      -4.43556460E-14
  0.291999996      -4.41695461E-14
  0.293000013      -4.24365506E-14
  0.294000000      -3.90636857E-14
  0.294999987      -3.40067736E-14
  0.296000004      -2.72766581E-14
  0.296999991      -1.89440443E-14
  0.298000008      -9.14264155E-15
  0.298999995       1.92966641E-15
  0.300000012       1.40118282E-14
  0.300999999       2.67829768E-14
  0.301999986       3.98682247E-14
  0.303000003       5.28468870E-14
  0.303999990       6.52630958E-14
  0.305000007       7.66385992E-14
  0.305999994       8.64874985E-14
  0.307000011       9.43325482E-14
  0.307999998       9.97225983E-14
  0.308999985       1.02250653E-13
  0.310000002       1.01571942E-13
  0.310999990       9.74213792E-14
  0.312000006       8.96297197E-14
  0.312999994       7.81377662E-14
  0.314000010       6.30079417E-14
  0.314999998       4.44325634E-14
  0.316000015       2.27383199E-14
  0.317000002      -1.61356897E-15
  0.317999989      -2.80318303E-14
  0.319000006      -5.58045363E-14
  0.319999993      -8.41134549E-14
  0.321000010      -1.12053230E-13
  0.321999997      -1.38655187E-13
  0.323000014      -1.62915227E-13
  0.324000001      -1.83825204E-13
  0.324999988      -2.00406992E-13
  0.326000005      -2.11748221E-13
  0.326999992      -2.17038627E-13
  0.328000009      -2.15605799E-13
  0.328999996      -2.06948987E-13
  0.330000013      -1.90769723E-13
  0.331000000      -1.66997953E-13
  0.331999987      -1.35812409E-13
  0.333000004      -9.76540693E-14
  0.333999991      -5.32317856E-14
  0.335000008      -3.51924741E-15
  0.335999995       5.02572701E-14
  0.337000012       1.06640642E-13
  0.338000000       1.63974005E-13
  0.338999987       2.20441043E-13
  0.340000004       2.74114526E-13
  0.340999991       3.23012260E-13
  0.342000008       3.65159075E-13
  0.342999995       3.98653007E-13
  0.344000012       4.21734099E-13
  0.344999999       4.32853243E-13
  0.345999986       4.30739130E-13
  0.347000003       4.14460783E-13
  0.347999990       3.83483257E-13
  0.349000007       3.37714123E-13
  0.349999994       2.77538734E-13
  0.351000011       2.03842030E-13
  0.351999998       1.18015461E-13
  0.352999985       2.19476604E-14
  0.354000002      -8.20019508E-14
  0.354999989      -1.91046858E-13
  0.356000006      -3.02034195E-13
  0.356999993      -4.11521755E-13
  0.358000010      -5.15869682E-13
  0.358999997      -6.11345176E-13
  0.360000014      -6.94236986E-13
  0.361000001      -7.60977219E-13
  0.361999989      -8.08266702E-13
  0.363000005      -8.33200045E-13
  0.363999993      -8.33386311E-13
  0.365000010      -8.07061124E-13
  0.365999997      -7.53186034E-13
  0.367000014      -6.71530865E-13
  0.368000001      -5.62735568E-13
  0.368999988      -4.28348221E-13
  0.370000005      -2.70836169E-13
  0.370999992      -9.35685313E-14
  0.372000009       9.92312650E-14
  0.372999996       3.02563367E-13
  0.374000013       5.10759187E-13
  0.375000000       7.17617155E-13
  0.375999987       9.16564350E-13
  0.377000004       1.10083991E-12
  0.377999991       1.26369607E-12
  0.379000008       1.39861159E-12
  0.379999995       1.49951113E-12
  0.381000012       1.56098452E-12
  0.381999999       1.57849862E-12
  0.382999986       1.54859459E-12
  0.384000003       1.46906391E-12
  0.384999990       1.33909561E-12
  0.386000007       1.15938888E-12
  0.386999995       9.32225434E-13
  0.388000011       6.61496519E-13
  0.388999999       3.52681805E-13
  0.389999986       1.27770109E-14
  0.391000003      -3.49829595E-13
  0.391999990      -7.25531560E-13
  0.393000007      -1.10372681E-12
  0.393999994      -1.47308402E-12
  0.395000011      -1.82184779E-12
  0.395999998      -2.13817419E-12
  0.397000015      -2.41048956E-12
  0.398000002      -2.62786125E-12
  0.398999989      -2.78037099E-12
  0.400000006      -2.85947741E-12
  0.400999993      -2.85835830E-12
  0.402000010      -2.77221952E-12
  0.402999997      -2.59855895E-12
  0.404000014      -2.33737552E-12
  0.405000001      -1.99131315E-12
  0.405999988      -1.56573235E-12
  0.407000005      -1.06870264E-12
  0.407999992      -5.10911029E-13
  0.409000009       9.45143486E-14
  0.409999996       7.32264835E-13
  0.411000013       1.38519318E-12
  0.412000000       2.03473067E-12
  0.412999988       2.66137156E-12
  0.414000005       3.24521161E-12
  0.414999992       3.76652962E-12
  0.416000009       4.20639391E-12
  0.416999996       4.54728095E-12
  0.418000013       4.77368188E-12
  0.419000000       4.87268212E-12
  0.419999987       4.83449348E-12
  0.421000004       4.65291998E-12
  0.421999991       4.32573899E-12
  0.423000008       3.85498187E-12
  0.423999995       3.24710072E-12
  0.425000012       2.51300912E-12
  0.425999999       1.66798823E-12
  0.426999986       7.31454719E-13
  0.428000003      -2.73408683E-13
  0.428999990      -1.32015839E-12
  0.430000007      -2.37972185E-12
  0.430999994      -3.42114271E-12
  0.432000011      -4.41242268E-12
  0.432999998      -5.32144251E-12
  0.433999985      -6.11693205E-12
  0.435000002      -6.76946606E-12
  0.435999990      -7.25245818E-12
  0.437000006      -7.54311891E-12
  0.437999994      -7.62334727E-12
  0.439000010      -7.48052401E-12
  0.439999998      -7.10818210E-12
  0.441000015      -6.50651841E-12
  0.442000002      -5.68272946E-12
  0.442999989      -4.65114969E-12
  0.444000006      -3.43317584E-12
  0.444999993      -2.05696961E-12
  0.446000010      -5.56936496E-13
  0.446999997       1.02701615E-12
  0.448000014       2.65042892E-12
  0.449000001       4.26543089E-12
  0.449999988       5.82204510E-12
  0.451000005       7.26962761E-12
  0.451999992       8.55840052E-12
  0.453000009       9.64103970E-12
  0.453999996       1.04742664E-11
  0.455000013       1.10203973E-11
  0.456000000       1.12487988E-11
  0.456999987       1.11371997E-11
  0.458000004       1.06728090E-11
  0.458999991       9.85319725E-12
  0.460000008       8.68689842E-12
  0.460999995       7.19370050E-12
  0.462000012       5.40460125E-12
  0.463000000       3.36141054E-12
  0.463999987       1.11599152E-12
  0.465000004      -1.27084985E-12
  0.465999991      -3.73081297E-12
  0.467000008      -6.18986069E-12
  0.467999995      -8.57024694E-12
  0.469000012      -1.07927686E-11
  0.469999999      -1.27791727E-11
  0.470999986      -1.44546632E-11
  0.472000003      -1.57504270E-11
  0.472999990      -1.66060932E-11
  0.474000007      -1.69720678E-11
  0.474999994      -1.68116406E-11
  0.476000011      -1.61027944E-11
  0.476999998      -1.48396451E-11
  0.477999985      -1.30334528E-11
  0.479000002      -1.07131422E-11
  0.479999989      -7.92529410E-12
  0.481000006      -4.73358592E-12
  0.481999993      -1.21766226E-12
  0.483000010       2.52855050E-12
  0.483999997       6.39906097E-12
  0.485000014       1.02785202E-11
  0.486000001       1.40453612E-11
  0.486999989       1.75752815E-11
  0.488000005       2.07450012E-11
  0.488999993       2.34361489E-11
  0.490000010       2.55392114E-11
  0.490999997       2.69573877E-11
  0.492000014       2.76102353E-11
  0.493000001       2.74369867E-11
  0.493999988       2.63994104E-11
  0.495000005       2.44841040E-11
  0.495999992       2.17041315E-11
  0.497000009       1.80999087E-11
  0.497999996       1.37392797E-11
  0.499000013       8.71674434E-12
  0.500000000       3.15182169E-12
  0.500999987      -2.81343980E-12
  0.501999974      -9.01776917E-12
  0.503000021      -1.52847266E-11
  0.504000008      -2.14274137E-11
  0.504999995      -2.72537253E-11
  0.505999982      -3.25719937E-11
  0.507000029      -3.71968810E-11
  0.508000016      -4.09553329E-11
  0.509000003      -4.36924281E-11
  0.509999990      -4.52769107E-11
  0.510999978      -4.56062479E-11
  0.512000024      -4.46110232E-11
  0.513000011      -4.22584988E-11
  0.513999999      -3.85551972E-11
  0.514999986      -3.35484002E-11
  0.515999973      -2.73264605E-11
  0.517000020      -2.00178606E-11
  0.518000007      -1.17890125E-11
  0.518999994      -2.84081439E-12
  0.519999981       6.59598895E-12
  0.521000028       1.62665419E-11
  0.522000015       2.58985680E-11
  0.523000002       3.52098524E-11
  0.523999989       4.39163185E-11
  0.524999976       5.17404695E-11
  0.526000023       5.84199425E-11
  0.527000010       6.37159214E-11
  0.527999997       6.74211659E-11
  0.528999984       6.93673591E-11
  0.529999971       6.94315300E-11
  0.531000018       6.75413822E-11
  0.532000005       6.36792424E-11
  0.532999992       5.78845132E-11
  0.533999979       5.02544568E-11
  0.535000026       4.09433355E-11
  0.536000013       3.01597462E-11
  0.537000000       1.81622564E-11
  0.537999988       5.25340101E-12
  0.538999975      -8.22783855E-12
  0.540000021      -2.19148831E-11
  0.541000009      -3.54235044E-11
  0.541999996      -4.83626195E-11
  0.542999983      -6.03455966E-11
  0.544000030      -7.10017947E-11
  0.545000017      -7.99879468E-11
  0.546000004      -8.69990677E-11
  0.546999991      -9.17785223E-11
  0.547999978      -9.41269493E-11
  0.549000025      -9.39097342E-11
  0.550000012      -9.10627476E-11
  0.550999999      -8.55961552E-11
  0.551999986      -7.75961170E-11
  0.552999973      -6.72242886E-11
  0.554000020      -5.47150658E-11
  0.555000007      -4.03706027E-11
  0.555999994      -2.45537063E-11
  0.556999981      -7.67876474E-12
  0.558000028       9.79907908E-12
  0.559000015       2.73962068E-11
  0.560000002       4.46139237E-11
  0.560999990       6.09526318E-11
  0.561999977       7.59263485E-11
  0.563000023       8.90771346E-11
  0.564000010       9.99890587E-11
  0.564999998       1.08301187E-10
  0.565999985       1.13719284E-10
  0.566999972       1.16025786E-10
  0.568000019       1.15087766E-10
  0.569000006       1.10862576E-10
  0.569999993       1.03400975E-10
  0.570999980       9.28476185E-11
  0.572000027       7.94388097E-11
  0.573000014       6.34975544E-11
  0.574000001       4.54260379E-11
  0.574999988       2.56956331E-11
  0.575999975       4.83473504E-12
  0.577000022      -1.65852471E-11
  0.578000009      -3.79654225E-11
  0.578999996      -5.86959856E-11
  0.579999983      -7.81734261E-11
  0.580999970      -9.58178120E-11
  0.582000017      -1.11089721E-10
  0.583000004      -1.23506316E-10
  0.583999991      -1.32656053E-10
  0.584999979      -1.38211623E-10
  0.586000025      -1.39940753E-10
  0.587000012      -1.37714423E-10
  0.588000000      -1.31512370E-10
  0.588999987      -1.21425606E-10
  0.589999974      -1.07655808E-10
  0.591000021      -9.05116954E-11
  0.592000008      -7.04023020E-11
  0.592999995      -4.78273567E-11
  0.593999982      -2.33650044E-11
  0.595000029       2.34281431E-12
  0.596000016       2.86069588E-11
  0.597000003       5.47092510E-11
  0.597999990       7.99217081E-11
  0.598999977       1.03526292E-10
  0.600000024       1.24834712E-10
  0.601000011       1.43207723E-10
  0.601999998       1.58073332E-10
  0.602999985       1.68943498E-10
  0.603999972       1.75428783E-10
  0.605000019       1.77250631E-10
  0.606000006       1.74250822E-10
  0.606999993       1.66397826E-10
  0.607999980       1.53789953E-10
  0.609000027       1.36655090E-10
  0.610000014       1.15346954E-10
  0.611000001       9.03380634E-11
  0.611999989       6.22094390E-11
  0.612999976       3.16372969E-11
  0.614000022      -6.22932261E-13
  0.615000010      -3.37549086E-11
  0.615999997      -6.69015607E-11
  0.616999984      -9.91866728E-11
  0.617999971      -1.29737276E-10
  0.619000018      -1.57706390E-10
  0.620000005      -1.82295470E-10
  0.620999992      -2.02776004E-10
  0.621999979      -2.18509724E-10
  0.623000026      -2.28966915E-10
  0.624000013      -2.33742276E-10
  0.625000000      -2.32567909E-10
  0.625999987      -2.25323163E-10
  0.626999974      -2.12040926E-10
  0.628000021      -1.92910160E-10
  0.629000008      -1.68274561E-10
  0.629999995      -1.38627304E-10
  0.630999982      -1.04601959E-10
  0.632000029      -6.69596739E-11
  0.633000016      -2.65728481E-11
  0.634000003       1.55943505E-11
  0.634999990       5.85081844E-11
  0.635999978       1.01089831E-10
  0.637000024       1.42241621E-10
  0.638000011       1.80874329E-10
  0.638999999       2.15935020E-10
  0.639999986       2.46434678E-10
  0.640999973       2.71474870E-10
  0.642000020       2.90272945E-10
  0.643000007       3.02184971E-10
  0.643999994       3.06725811E-10
  0.644999981       3.03585684E-10
  0.646000028       2.92642910E-10
  0.647000015       2.73972178E-10
  0.648000002       2.47848048E-10
  0.648999989       2.14743501E-10
  0.649999976       1.75323464E-10
  0.651000023       1.30433220E-10
  0.652000010       8.10818218E-11
  0.652999997       2.84208542E-11
  0.653999984      -2.62811439E-11
  0.654999971      -8.16680196E-11
  0.656000018      -1.36328560E-10
  0.657000005      -1.88831395E-10
  0.657999992      -2.37761644E-10
  0.658999979      -2.81758228E-10
  0.660000026      -3.19550941E-10
  0.661000013      -3.49996310E-10
  0.662000000      -3.72111397E-10
  0.662999988      -3.85104254E-10
  0.663999975      -3.88400506E-10
  0.665000021      -3.81664950E-10
  0.666000009      -3.64817537E-10
  0.666999996      -3.38043038E-10
  0.667999983      -3.01793979E-10
  0.669000030      -2.56786509E-10
  0.670000017      -2.03989159E-10
  0.671000004      -1.44604370E-10
  0.671999991      -8.00431527E-11
  0.672999978      -1.18933474E-11
  0.674000025       5.81179375E-11
  0.675000012       1.28166824E-10
  0.675999999       1.96379135E-10
  0.676999986       2.60879679E-10
  0.677999973       3.19843096E-10
  0.679000020       3.71544934E-10
  0.680000007       4.14411422E-10
  0.680999994       4.47066800E-10
  0.681999981       4.68376560E-10
  0.683000028       4.77485163E-10
  0.684000015       4.73847517E-10
  0.685000002       4.57252541E-10
  0.685999990       4.27838182E-10
  0.686999977       3.86097376E-10
  0.688000023       3.32874089E-10
  0.689000010       2.69349543E-10
  0.689999998       1.97018638E-10
  0.690999985       1.17656995E-10
  0.691999972       3.32791815E-11
  0.693000019      -5.39109903E-11
  0.694000006      -1.41576750E-10
  0.694999993      -2.27309976E-10
  0.695999980      -3.08696485E-10
  0.697000027      -3.83383214E-10
  0.698000014      -4.49145499E-10
  0.699000001      -5.03952602E-10
  0.699999988      -5.46029222E-10
  0.700999975      -5.73911751E-10
  0.702000022      -5.86496907E-10
  0.703000009      -5.83081416E-10
  0.703999996      -5.63391611E-10
  0.704999983      -5.27601351E-10
  0.705999970      -4.76337858E-10
  0.707000017      -4.10674911E-10
  0.708000004      -3.32113032E-10
  0.708999991      -2.42547232E-10
  0.709999979      -1.44222856E-10
  0.711000025      -3.96804534E-11
  0.712000012       6.83090945E-11
  0.713000000       1.76817311E-10
  0.713999987       2.82837059E-10
  0.714999974       3.83365478E-10
  0.716000021       4.75488482E-10
  0.717000008       5.56464819E-10
  0.717999995       6.23806728E-10
  0.718999982       6.75355438E-10
  0.720000029       7.09348746E-10
  0.721000016       7.24478810E-10
  0.722000003       7.19938220E-10
  0.722999990       6.95452973E-10
  0.723999977       6.51300902E-10
  0.725000024       5.88314786E-10
  0.726000011       5.07869913E-10
  0.726999998       4.11856244E-10
  0.727999985       3.02635139E-10
  0.728999972       1.82982185E-10
  0.730000019       5.60173713E-11
  0.731000006      -7.48760567E-11
  0.731999993      -2.06141437E-10
  0.732999980      -3.34145045E-10
  0.734000027      -4.55276483E-10
  0.735000014      -5.66050040E-10
  0.736000001      -6.63204380E-10
  0.736999989      -7.43797857E-10
  0.737999976      -8.05296052E-10
  0.739000022      -8.45649939E-10
  0.740000010      -8.63361382E-10
  0.740999997      -8.57534432E-10
  0.741999984      -8.27910684E-10
  0.742999971      -7.74887376E-10
  0.744000018      -6.99517499E-10
  0.745000005      -6.03491646E-10
  0.745999992      -4.89101648E-10
  0.746999979      -3.59187263E-10
  0.748000026      -2.17066476E-10
  0.749000013      -6.64516012E-11
  0.750000000       8.86469509E-11
  0.750999987       2.44026549E-10
  0.751999974       3.95405181E-10
  0.753000021       5.38538270E-10
  0.754000008       6.69336087E-10
  0.754999995       7.83978771E-10
  0.755999982       8.79025630E-10
  0.757000029       9.51515533E-10
  0.758000016       9.99055505E-10
  0.759000003       1.01989561E-09
  0.759999990       1.01298658E-09
  0.760999978       9.78019443E-10
  0.762000024       9.15445442E-10
  0.763000011       8.26475721E-10
  0.763999999       7.13059889E-10
  0.764999986       5.77844328E-10
  0.765999973       4.24111080E-10
  0.767000020       2.55698407E-10
  0.768000007       7.69052391E-11
  0.768999994      -1.07618164E-10
  0.769999981      -2.92990632E-10
  0.771000028      -4.74228434E-10
  0.772000015      -6.46378118E-10
  0.773000002      -8.04650457E-10
  0.773999989      -9.44551659E-10
  0.774999976      -1.06200859E-09
  0.776000023      -1.15348420E-09
  0.777000010      -1.21608024E-09
  0.777999997      -1.24762412E-09
  0.778999984      -1.24673760E-09
  0.779999971      -1.21288513E-09
  0.781000018      -1.14639986E-09
  0.782000005      -1.04848741E-09
  0.782999992      -9.21206000E-10
  0.783999979      -7.67423458E-10
  0.785000026      -5.90752336E-10
  0.786000013      -3.95464245E-10
  0.787000000      -1.86385352E-10
  0.787999988       3.12239609E-11
  0.788999975       2.51802662E-10
  0.790000021       4.69632278E-10
  0.791000009       6.78986201E-10
  0.791999996       8.74280759E-10
  0.792999983       1.05022468E-09
  0.794000030       1.20196264E-09
  0.795000017       1.32520839E-09
  0.796000004       1.41636503E-09
  0.796999991       1.47262835E-09
  0.797999978       1.49207002E-09
  0.799000025       1.47369861E-09
  0.800000012       1.41749656E-09
  0.800999999       1.32443190E-09
  0.801999986       1.19644372E-09
  0.802999973       1.03640185E-09
  0.804000020       8.48041248E-10
  0.805000007       6.35872910E-10
  0.805999994       4.05073308E-10
  0.806999981       1.61354929E-10
  0.808000028      -8.91787616E-11
  0.809000015      -3.40190126E-10
  0.810000002      -5.85271998E-10
  0.810999990      -8.18115575E-10
  0.811999977      -1.03267761E-09
  0.813000023      -1.22334176E-09
  0.814000010      -1.38507028E-09
  0.814999998      -1.51354174E-09
  0.815999985      -1.60527058E-09
  0.816999972      -1.65770575E-09
  0.818000019      -1.66930525E-09
  0.819000006      -1.63958425E-09
  0.819999993      -1.56913560E-09
  0.820999980      -1.45962176E-09
  0.822000027      -1.31373790E-09
  0.823000014      -1.13514775E-09
  0.824000001      -9.28392696E-10
  0.824999988      -6.98776814E-10
  0.825999975      -4.52231252E-10
  0.827000022      -1.95160596E-10
  0.828000009       6.57241622E-11
  0.828999996       3.23581856E-10
  0.829999983       5.71621750E-10
  0.830999970       8.03284050E-10
  0.832000017       1.01241460E-09
  0.833000004       1.19343047E-09
  0.833999991       1.34146982E-09
  0.834999979       1.45252432E-09
  0.836000025       1.52354862E-09
  0.837000012       1.55254476E-09
  0.838000000       1.53861857E-09
  0.838999987       1.48200729E-09
  0.839999974       1.38407663E-09
  0.841000021       1.24728761E-09
  0.842000008       1.07513443E-09
  0.842999995       8.72054373E-10
  0.843999982       6.43312514E-10
  0.845000029       3.94863753E-10
  0.846000016       1.33196648E-10
  0.847000003      -1.34837294E-10
  0.847999990      -4.02204270E-10
  0.848999977      -6.61873778E-10
  0.850000024      -9.07004194E-10
  0.851000011      -1.13112353E-09
  0.851999998      -1.32830036E-09
  0.852999985      -1.49330037E-09
  0.853999972      -1.62172442E-09
  0.855000019      -1.71012438E-09
  0.856000006      -1.75609394E-09