   0.00000000       0.00000000    
   1.00000005E-03   0.00000000    
   2.00000009E-03   0.00000000    
   3.00000003E-03   0.00000000    
   4.00000019E-03   0.00000000    
   4.99999989E-03   0.00000000    
   6.00000005E-03   0.00000000    
   7.00000022E-03   0.00000000    
   8.00000038E-03   0.00000000    
   8.99999961E-03   0.00000000    
   9.99999978E-03   0.00000000    
   1.09999999E-02   0.00000000    
   1.20000001E-02   0.00000000    
   1.30000003E-02   0.00000000    
   1.40000004E-02   0.00000000    
   1.49999997E-02   0.00000000    
   1.60000008E-02   0.00000000    
   1.70000009E-02   0.00000000    
   1.79999992E-02   0.00000000    
   1.89999994E-02   0.00000000    
   1.99999996E-02   0.00000000    
   2.09999997E-02   0.00000000    
   2.19999999E-02  -3.76490194E-38
   2.30000000E-02  -1.82224023E-37
   2.40000002E-02  -4.52574204E-37
   2.50000004E-02  -9.89165151E-37
   2.60000005E-02  -3.73613919E-36
   2.70000007E-02  -1.03076132E-35
   2.80000009E-02  -2.49101287E-35
   2.89999992E-02  -5.55895985E-35
   2.99999993E-02  -1.11965355E-34
   3.09999995E-02  -2.12345111E-34
   3.20000015E-02  -3.85855010E-34
   3.29999998E-02  -6.77808593E-34
   3.40000018E-02  -1.15559112E-33
   3.50000001E-02  -1.92203924E-33
   3.59999985E-02  -3.13028452E-33
   3.70000005E-02  -4.99306874E-33
   3.79999988E-02  -7.80372569E-33
   3.90000008E-02  -1.19555313E-32
   3.99999991E-02  -1.79612363E-32
   4.10000011E-02  -2.64688678E-32
   4.19999994E-02  -3.82691090E-32
   4.30000015E-02  -5.42911529E-32
   4.39999998E-02  -7.55707274E-32
   4.50000018E-02  -1.03185752E-31
   4.60000001E-02  -1.38142063E-31
   4.69999984E-02  -1.81185974E-31
   4.80000004E-02  -2.32527476E-31
   4.89999987E-02  -2.91446803E-31
   5.00000007E-02  -3.55755066E-31
   5.09999990E-02  -4.21080461E-31
   5.20000011E-02  -4.79950864E-31
   5.29999994E-02  -5.20647889E-31
   5.40000014E-02  -5.25815033E-31
   5.49999997E-02  -4.70817508E-31
   5.60000017E-02  -3.21872311E-31
   5.70000000E-02  -3.40012211E-32
   5.79999983E-02   4.51096709E-31
   5.90000004E-02   1.20709568E-30
   5.99999987E-02   2.32477969E-30
   6.10000007E-02   3.91313531E-30
   6.19999990E-02   6.09935017E-30
   6.30000010E-02   9.02714586E-30
   6.40000030E-02   1.28527206E-29
   6.49999976E-02   1.77374702E-29
   6.59999996E-02   2.38364946E-29
   6.70000017E-02   3.12818750E-29
   6.80000037E-02   4.01596928E-29
   6.89999983E-02   5.04798697E-29
   7.00000003E-02   6.21382459E-29
   7.10000023E-02   7.48707914E-29
   7.19999969E-02   8.82006701E-29
   7.29999989E-02   1.01379941E-28
   7.40000010E-02   1.13329193E-28
   7.50000030E-02   1.22580325E-28
   7.59999976E-02   1.27229797E-28
   7.69999996E-02   1.24912181E-28
   7.80000016E-02   1.12806484E-28
   7.90000036E-02   8.76902987E-29
   7.99999982E-02   4.60588162E-29
   8.10000002E-02  -1.56730554E-29
   8.20000023E-02  -1.00866789E-28
   8.29999968E-02  -2.12238660E-28
   8.39999989E-02  -3.51308857E-28
   8.50000009E-02  -5.17717654E-28
   8.60000029E-02  -7.08417797E-28
   8.69999975E-02  -9.16766535E-28
   8.79999995E-02  -1.13156425E-27
   8.90000015E-02  -1.33611265E-27
   9.00000036E-02  -1.50739263E-27
   9.09999982E-02  -1.61549613E-27
   9.20000002E-02  -1.62347979E-27
   9.30000022E-02  -1.48783712E-27
   9.39999968E-02  -1.15981523E-27
   9.49999988E-02  -5.87806530E-28
   9.60000008E-02   2.78951356E-28
   9.70000029E-02   1.48515622E-27
   9.79999974E-02   3.06255949E-27
   9.89999995E-02   5.02137122E-27
  0.100000001       7.34001561E-27
  0.101000004       9.95351564E-27
  0.101999998       1.27409903E-26
  0.103000000       1.55130021E-26
  0.104000002       1.79998599E-26
  0.104999997       1.98422677E-26
  0.105999999       2.05860110E-26
  0.107000001       1.96828068E-26
  0.108000003       1.64995713E-26
  0.108999997       1.03385414E-26
  0.109999999       4.70755056E-28
  0.111000001      -1.38149174E-26
  0.112000003      -3.31453899E-26
  0.112999998      -5.79785402E-26
  0.114000000      -8.85001048E-26
  0.115000002      -1.24503945E-25
  0.115999997      -1.65259161E-25
  0.116999999      -2.09369502E-25
  0.118000001      -2.54633897E-25
  0.119000003      -2.97918966E-25
  0.119999997      -3.35057428E-25
  0.120999999      -3.60789356E-25
  0.122000001      -3.68765430E-25
  0.123000003      -3.51632776E-25
  0.123999998      -3.01225452E-25
  0.125000000      -2.08880606E-25
  0.126000002      -6.58983524E-26
  0.127000004       1.35839666E-25
  0.128000006       4.03086673E-25
  0.128999993       7.40283147E-25
  0.129999995       1.14846049E-24
  0.130999997       1.62402647E-24
  0.131999999       2.15747758E-24
  0.133000001       2.73210733E-24
  0.134000003       3.32279691E-24
  0.135000005       3.89499520E-24
  0.136000007       4.40401835E-24
  0.136999995       4.79481412E-24
  0.137999997       5.00234292E-24
  0.138999999       4.95273855E-24
  0.140000001       4.56540864E-24
  0.141000003       3.75620814E-24
  0.142000005       2.44179409E-24
  0.143000007       5.45231273E-25
  0.143999994      -1.99715738E-24
  0.144999996      -5.22777175E-24
  0.145999998      -9.15873506E-24
  0.147000000      -1.37621881E-23
  0.148000002      -1.89602971E-23
  0.149000004      -2.46155321E-23
  0.150000006      -3.05218772E-23
  0.150999993      -3.63977740E-23
  0.151999995      -4.18817204E-23
  0.152999997      -4.65315032E-23
  0.153999999      -4.98280962E-23
  0.155000001      -5.11852272E-23
  0.156000003      -4.99655631E-23
  0.157000005      -4.55043054E-23
  0.158000007      -3.71407011E-23
  0.158999994      -2.42576590E-23
  0.159999996      -6.32936552E-24
  0.160999998       1.70240080E-23
  0.162000000       4.59757286E-23
  0.163000003       8.04281748E-23
  0.164000005       1.19947449E-22
  0.165000007       1.63700452E-22
  0.165999994       2.10398581E-22
  0.166999996       2.58252916E-22
  0.167999998       3.04946287E-22
  0.169000000       3.47627903E-22
  0.170000002       3.82936106E-22
  0.171000004       4.07055130E-22
  0.172000006       4.15810754E-22
  0.172999993       4.04808580E-22
  0.173999995       3.69617584E-22
  0.174999997       3.05999852E-22
  0.175999999       2.10184466E-22
  0.177000001       7.91809604E-23
  0.178000003      -8.88753352E-23
  0.179000005      -2.94357224E-22
  0.180000007      -5.35773779E-22
  0.180999994      -8.09411073E-22
  0.181999996      -1.10900757E-21
  0.182999998      -1.42548928E-21
  0.184000000      -1.74679058E-21
  0.185000002      -2.05779151E-21
  0.186000004      -2.34039829E-21
  0.187000006      -2.57379469E-21
  0.187999994      -2.73488892E-21
  0.188999996      -2.79897563E-21
  0.189999998      -2.74062426E-21
  0.191000000      -2.53479724E-21
  0.192000002      -2.15818975E-21
  0.193000004      -1.59077050E-21
  0.194000006      -8.17488049E-22
  0.194999993       1.69910542E-22
  0.195999995       1.37101471E-21
  0.196999997       2.77492277E-21
  0.197999999       4.35855278E-21
  0.199000001       6.08519901E-21
  0.200000003       7.90345872E-21
  0.201000005       9.74666108E-21
  0.202000007       1.15329164E-20
  0.202999994       1.31659220E-20
  0.203999996       1.45366152E-20
  0.204999998       1.55257810E-20
  0.206000000       1.60076687E-20
  0.207000002       1.58546370E-20
  0.208000004       1.49428029E-20
  0.209000006       1.31586204E-20
  0.209999993       1.04062617E-20
  0.210999995       6.61558698E-21
  0.211999997       1.75045029E-21
  0.213000000      -4.18299743E-21
  0.214000002      -1.11283984E-20
  0.215000004      -1.89721014E-20
  0.216000006      -2.75374177E-20
  0.216999993      -3.65807120E-20
  0.217999995      -4.57898365E-20
  0.218999997      -5.47854386E-20
  0.219999999      -6.31256034E-20
  0.221000001      -7.03142101E-20
  0.222000003      -7.58132810E-20
  0.223000005      -7.90594802E-20
  0.224000007      -7.94847673E-20
  0.224999994      -7.65409931E-20
  0.225999996      -6.97279846E-20
  0.226999998      -5.86244743E-20
  0.228000000      -4.29210481E-20
  0.229000002      -2.24538193E-20
  0.230000004       2.76244236E-21
  0.231000006       3.25032673E-20
  0.231999993       6.63074312E-20
  0.232999995       1.03455641E-19
  0.233999997       1.42956959E-19
  0.234999999       1.83544838E-19
  0.236000001       2.23684579E-19
  0.237000003       2.61593775E-19
  0.238000005       2.95277035E-19
  0.238999993       3.22575753E-19
  0.239999995       3.41233328E-19
  0.240999997       3.48975480E-19
  0.241999999       3.43604545E-19
  0.243000001       3.23106027E-19
  0.244000003       2.85764716E-19
  0.245000005       2.30286850E-19
  0.246000007       1.55924256E-19
  0.246999994       6.25949218E-20
  0.247999996      -4.90053331E-20
  0.248999998      -1.77305970E-19
  0.250000000      -3.19787198E-19
  0.250999987      -4.72933381E-19
  0.252000004      -6.32220915E-19
  0.252999991      -7.92147084E-19
  0.254000008      -9.46304133E-19
  0.254999995      -1.08750293E-18
  0.256000012      -1.20794839E-18
  0.256999999      -1.29946703E-18
  0.257999986      -1.35378519E-18
  0.259000003      -1.36285389E-18
  0.259999990      -1.31921328E-18
  0.261000007      -1.21638812E-18
  0.261999995      -1.04930166E-18
  0.263000011      -8.14694218E-19
  0.263999999      -5.11529111E-19
  0.264999986      -1.41367920E-19
  0.266000003       2.91305844E-19
  0.266999990       7.78834904E-19
  0.268000007       1.31022762E-18
  0.268999994       1.87111108E-18
  0.270000011       2.44381372E-18
  0.270999998       3.00759376E-18
  0.272000015       3.53902525E-18
  0.273000002       4.01254603E-18
  0.273999989       4.40117079E-18
  0.275000006       4.67736060E-18
  0.275999993       4.81403855E-18
  0.277000010       4.78572912E-18
  0.277999997       4.56979238E-18
  0.279000014       4.14771520E-18
  0.280000001       3.50641862E-18
  0.280999988       2.63952816E-18
  0.282000005       1.54855283E-18
  0.282999992       2.43911678E-19
  0.284000009      -1.25425107E-18
  0.284999996      -2.91552442E-18
  0.286000013      -4.69902074E-18
  0.287000000      -6.55355099E-18
  0.287999988      -8.41822619E-18
  0.289000005      -1.02235198E-17
  0.289999992      -1.18928050E-17
  0.291000009      -1.33443746E-17
  0.291999996      -1.44939282E-17
  0.293000013      -1.52574738E-17
  0.294000000      -1.55546037E-17
  0.294999987      -1.53120512E-17
  0.296000004      -1.44674319E-17
  0.296999991      -1.29730400E-17
  0.298000008      -1.07995642E-17
  0.298999995      -7.93957151E-18
  0.300000012      -4.41058286E-18
  0.300999999      -2.57579493E-19
  0.301999986       4.44522353E-18
  0.303000003       9.59351088E-18
  0.303999990       1.50530328E-17
  0.305000007       2.06609451E-17
  0.305999994       2.62283984E-17
  0.307000011       3.15444334E-17
  0.307999998       3.63812066E-17
  0.308999985       4.05004701E-17
  0.310000002       4.36612430E-17
  0.310999990       4.56285234E-17
  0.312000006       4.61828072E-17
  0.312999994       4.51301570E-17
  0.314000010       4.23125217E-17
  0.314999998       3.76179210E-17
  0.316000015       3.09901033E-17
  0.317000002       2.24372510E-17
  0.317999989       1.20392912E-17
  0.319000006      -4.66232080E-20
  0.319999993      -1.35828946E-17
  0.321000010      -2.82508715E-17
  0.321999997      -4.36532061E-17
  0.323000014      -5.93194047E-17
  0.324000001      -7.47147183E-17
  0.324999988      -8.92524308E-17
  0.326000005      -1.02309503E-16
  0.326999992      -1.13245274E-16
  0.328000009      -1.21422914E-16
  0.328999996      -1.26233161E-16
  0.330000013      -1.27119700E-16
  0.331000000      -1.23605321E-16
  0.331999987      -1.15318109E-16
  0.333000004      -1.02016661E-16
  0.333999991      -8.36132030E-17
  0.335000008      -6.01936619E-17
  0.335999995      -3.20335122E-17
  0.337000012       3.91590611E-19
  0.338000000       3.64013402E-17
  0.338999987       7.51132539E-17
  0.340000004       1.15452880E-16
  0.340999991       1.56171938E-16
  0.342000008       1.95874807E-16
  0.342999995       2.33053095E-16
  0.344000012       2.66127852E-16
  0.344999999       2.93498796E-16
  0.345999986       3.13599576E-16
  0.347000003       3.24957149E-16
  0.347999990       3.26254168E-16
  0.349000007       3.16392031E-16
  0.349999994       2.94552505E-16
  0.351000011       2.60255532E-16
  0.351999998       2.13410626E-16
  0.352999985       1.54359473E-16
  0.354000002       8.39074014E-17
  0.354999989       3.34121410E-18
  0.356000006      -8.55683933E-17
  0.356999993      -1.80581442E-16
  0.358000010      -2.79021467E-16
  0.358999997      -3.77827172E-16
  0.360000014      -4.73622814E-16
  0.361000001      -5.62806436E-16
  0.361999989      -6.41654880E-16
  0.363000005      -7.06443001E-16
  0.363999993      -7.53574455E-16
  0.365000010      -7.79720139E-16
  0.365999997      -7.81960488E-16
  0.367000014      -7.57926458E-16
  0.368000001      -7.05934093E-16
  0.368999988      -6.25107827E-16
  0.370000005      -5.15486199E-16
  0.370999992      -3.78105132E-16
  0.372000009      -2.15053910E-16
  0.372999996      -2.94989679E-17
  0.374000013       1.74328142E-16
  0.375000000       3.91181361E-16
  0.375999987       6.14890757E-16
  0.377000004       8.38493955E-16
  0.377999991       1.05440694E-15
  0.379000008       1.25463198E-15
  0.379999995       1.43099800E-15
  0.381000012       1.57542845E-15
  0.381999999       1.68022908E-15
  0.382999986       1.73838711E-15
  0.384000003       1.74387249E-15
  0.384999990       1.69193084E-15
  0.386000007       1.57935635E-15
  0.386999995       1.40473405E-15
  0.388000011       1.16864024E-15
  0.388999999       8.73789659E-16
  0.389999986       5.25120723E-16
  0.391000003       1.29810751E-16
  0.391999990      -3.02786300E-16
  0.393000007      -7.61282508E-16
  0.393999994      -1.23248143E-15
  0.395000011      -1.70168411E-15
  0.395999998      -2.15307305E-15
  0.397000015      -2.57016499E-15
  0.398000002      -2.93632357E-15
  0.398999989      -3.23531709E-15
  0.400000006      -3.45190765E-15
  0.400999993      -3.57245124E-15
  0.402000010      -3.58548792E-15
  0.402999997      -3.48230449E-15
  0.404000014      -3.25744350E-15
  0.405000001      -2.90913805E-15
  0.405999988      -2.43965288E-15
  0.407000005      -1.85550995E-15
  0.407999992      -1.16758420E-15
  0.409000009      -3.91054730E-16
  0.409999996       4.54796659E-16
  0.411000013       1.34694523E-15
  0.412000000       2.25913830E-15
  0.412999988       3.16256077E-15
  0.414000005       4.02663793E-15
  0.414999992       4.81995713E-15
  0.416000009       5.51128552E-15
  0.416999996       6.07065337E-15
  0.418000013       6.47047156E-15
  0.419000000       6.68664410E-15
  0.419999987       6.69963674E-15
  0.421000004       6.49546199E-15
  0.421999991       6.06653975E-15
  0.423000008       5.41239273E-15
  0.423999995       4.54014149E-15
  0.425000012       3.46476858E-15
  0.425999999       2.20912630E-15
  0.426999986       8.03668990E-16
  0.428000003      -7.14099491E-16
  0.428999990      -2.30046038E-15
  0.430000007      -3.90659007E-15
  0.430999994      -5.47992116E-15
  0.432000011      -6.96572410E-15
  0.432999998      -8.30887059E-15
  0.433999985      -9.45572271E-15
  0.435000002      -1.03560950E-14
  0.435999990      -1.09652218E-14
  0.437000006      -1.12456558E-14
  0.437999994      -1.11690307E-14
  0.439000010      -1.07176171E-14
  0.439999998      -9.88559786E-15
  0.441000015      -8.68000062E-15
  0.442000002      -7.12123384E-15
  0.442999989      -5.24318053E-15
  0.444000006      -3.09281841E-15
  0.444999993      -7.29345237E-16
  0.446000010       1.77718312E-15
  0.446999997       4.34768968E-15
  0.448000014       6.89634998E-15
  0.449000001       9.33324768E-15
  0.449999988       1.15673411E-14
  0.451000005       1.35096520E-14
  0.451999992       1.50765800E-14
  0.453000009       1.61932184E-14
  0.453999996       1.67965685E-14
  0.455000013       1.68385119E-14
  0.456000000       1.62884266E-14
  0.456999987       1.51353319E-14
  0.458000004       1.33894437E-14
  0.458999991       1.10830560E-14
  0.460000008       8.27067280E-15
  0.460999995       5.02833443E-15
  0.462000012       1.45211707E-15
  0.463000000      -2.34419714E-15
  0.463999987      -6.23224269E-15
  0.465000004      -1.00729124E-14
  0.465999991      -1.37208394E-14
  0.467000008      -1.70293873E-14
  0.467999995      -1.98559939E-14
  0.469000012      -2.20676918E-14
  0.469999999      -2.35466232E-14
  0.470999986      -2.41953454E-14
  0.472000003      -2.39417047E-14
  0.472999990      -2.27430887E-14
  0.474000007      -2.05898548E-14
  0.474999994      -1.75077492E-14
  0.476000011      -1.35591747E-14
  0.476999998      -8.84317813E-15
  0.477999985      -3.49408693E-15
  0.479000002       2.32125123E-15
  0.479999989       8.40760838E-15
  0.481000006       1.45468320E-14
  0.481999993       2.05044992E-14
  0.483000010       2.60376014E-14
  0.483999997       3.09030484E-14
  0.485000014       3.48667188E-14
  0.486000001       3.77127664E-14
  0.486999989       3.92528790E-14
  0.488000005       3.93351089E-14
  0.488999993       3.78519441E-14
  0.490000010       3.47472837E-14
  0.490999997       3.00219884E-14
  0.492000014       2.37376901E-14
  0.493000001       1.60186399E-14
  0.493999988       7.05138877E-15
  0.495000005      -2.91781590E-15
  0.495999992      -1.35879941E-14
  0.497000009      -2.46107134E-14
  0.497999996      -3.55995581E-14
  0.499000013      -4.61416014E-14
  0.500000000      -5.58105909E-14
  0.500999987      -6.41814957E-14
  0.501999974      -7.08459238E-14
  0.503000021      -7.54279926E-14
  0.504000008      -7.76000629E-14
  0.504999995      -7.70977588E-14
  0.505999982      -7.37337098E-14
  0.507000029      -6.74094569E-14
  0.508000016      -5.81249729E-14
  0.509000003      -4.59853069E-14
  0.509999990      -3.12039077E-14
  0.510999978      -1.41023964E-14
  0.512000024       4.89350924E-15
  0.513000011       2.52619818E-14
  0.513999999       4.63969514E-14
  0.514999986       6.76236207E-14
  0.515999973       8.82173905E-14
  0.517000020       1.07425685E-13
  0.518000007       1.24492064E-13
  0.518999994       1.38681980E-13
  0.519999981       1.49309384E-13
  0.521000028       1.55763233E-13
  0.522000015       1.57533058E-13
  0.523000002       1.54232597E-13
  0.523999989       1.45620603E-13
  0.524999976       1.31617983E-13
  0.526000023       1.12320364E-13
  0.527000010       8.80055035E-14
  0.527999997       5.91349615E-14
  0.528999984       2.63496364E-14
  0.529999971      -9.54096726E-15
  0.531000018      -4.75757603E-14
  0.532000005      -8.66651382E-14
  0.532999992      -1.25619621E-13
  0.533999979      -1.63183418E-13
  0.535000026      -1.98072028E-13
  0.536000013      -2.29012826E-13
  0.537000000      -2.54787402E-13
  0.537999988      -2.74274472E-13
  0.538999975      -2.86491615E-13
  0.540000021      -2.90634731E-13
  0.541000009      -2.86113608E-13
  0.541999996      -2.72582304E-13
  0.542999983      -2.49962973E-13
  0.544000030      -2.18462021E-13
  0.545000017      -1.78577896E-13
  0.546000004      -1.31099599E-13
  0.546999991      -7.70956581E-14
  0.547999978      -1.78934660E-14
  0.549000025       4.49508323E-14
  0.550000012       1.09691200E-13
  0.550999999       1.74438589E-13
  0.551999986       2.37214572E-13
  0.552999973       2.96010287E-13
  0.554000020       3.48848907E-13
  0.555000007       3.93849883E-13
  0.555999994       4.29292805E-13
  0.556999981       4.53678815E-13
  0.558000028       4.65787456E-13
  0.559000015       4.64726890E-13
  0.560000002       4.49975587E-13
  0.560999990       4.21413826E-13
  0.561999977       3.79343583E-13
  0.563000023       3.24495422E-13
  0.564000010       2.58022119E-13
  0.564999998       1.81478530E-13
  0.565999985       9.67875885E-14
  0.566999972       6.19345409E-15
  0.568000019      -8.77974383E-14
  0.569000006      -1.82485849E-13
  0.569999993      -2.75057781E-13
  0.570999980      -3.62668934E-13
  0.572000027      -4.42533054E-13
  0.573000014      -5.12011440E-13
  0.574000001      -5.68700523E-13
  0.574999988      -6.10515111E-13
  0.575999975      -6.35763794E-13
  0.577000022      -6.43214323E-13
  0.578000009      -6.32146299E-13
  0.578999996      -6.02389124E-13
  0.579999983      -5.54343409E-13
  0.580999970      -4.88984721E-13
  0.582000017      -4.07849075E-13
  0.583000004      -3.13000006E-13
  0.583999991      -2.06977718E-13
  0.584999979      -9.27314730E-14
  0.586000025       2.64628949E-14
  0.587000012       1.47098371E-13
  0.588000000       2.65542064E-13
  0.588999987       3.78147383E-13
  0.589999974       4.81369556E-13
  0.591000021       5.71880759E-13
  0.592000008       6.46681439E-13
  0.592999995       7.03203500E-13
  0.593999982       7.39402029E-13
  0.595000029       7.53832706E-13
  0.596000016       7.45711164E-13
  0.597000003       7.14952349E-13
  0.597999990       6.62188457E-13
  0.598999977       5.88763467E-13
  0.600000024       4.96704457E-13
  0.601000011       3.88670107E-13
  0.601999998       2.67877110E-13
  0.602999985       1.38006834E-13
  0.603999972       3.09462471E-15
  0.605000019      -1.32595080E-13
  0.606000006      -2.64703895E-13
  0.606999993      -3.88920748E-13
  0.607999980      -5.01124587E-13
  0.609000027      -5.97523929E-13
  0.610000014      -6.74788784E-13
  0.611000001      -7.30170048E-13
  0.611999989      -7.61602099E-13
  0.612999976      -7.67784978E-13
  0.614000022      -7.48242939E-13
  0.615000010      -7.03356861E-13
  0.615999997      -6.34368643E-13
  0.616999984      -5.43356863E-13
  0.617999971      -4.33183952E-13
  0.619000018      -3.07415877E-13
  0.620000005      -1.70216312E-13
  0.620999992      -2.62182040E-14
  0.621999979       1.19623482E-13
  0.623000026       2.62193208E-13
  0.624000013       3.96385778E-13
  0.625000000       5.17281096E-13
  0.625999987       6.20316840E-13
  0.626999974       7.01453598E-13
  0.628000021       7.57326060E-13
  0.629000008       7.85376159E-13
  0.629999995       7.83961492E-13
  0.630999982       7.52435982E-13
  0.632000029       6.91199322E-13
  0.633000016       6.01711985E-13
  0.634000003       4.86474847E-13
  0.634999990       3.48973048E-13
  0.635999978       1.93585111E-13
  0.637000024       2.54590457E-14
  0.638000011      -1.49641150E-13
  0.638999999      -3.25514355E-13
  0.639999986      -4.95721574E-13
  0.640999973      -6.53799118E-13
  0.642000020      -7.93479486E-13
  0.643000007      -9.08912756E-13
  0.643999994      -9.94881044E-13
  0.644999981      -1.04699908E-12
  0.646000028      -1.06189341E-12
  0.647000015      -1.03735401E-12
  0.648000002      -9.72452262E-13
  0.648999989      -8.67620537E-13
  0.649999976      -7.24689623E-13
  0.651000023      -5.46881117E-13
  0.652000010      -3.38753494E-13
  0.652999997      -1.06102545E-13
  0.653999984       1.44182450E-13
  0.654999971       4.04303435E-13
  0.656000018       6.65775106E-13
  0.657000005       9.19676986E-13
  0.657999992       1.15692883E-12
  0.658999979       1.36858157E-12
  0.660000026       1.54611512E-12
  0.661000013       1.68173396E-12
  0.662000000       1.76865055E-12
  0.662999988       1.80134770E-12
  0.663999975       1.77581073E-12
  0.665000021       1.68972052E-12
  0.666000009       1.54260079E-12
  0.666999996       1.33591293E-12
  0.667999983       1.07309376E-12
  0.669000030       7.59532899E-13
  0.670000017       4.02488156E-13
  0.671000004       1.09392340E-14
  0.671999991      -4.04617285E-13
  0.672999978      -8.32428093E-13
  0.674000025      -1.25979240E-12
  0.675000012      -1.67341206E-12
  0.675999999      -2.05977423E-12
  0.676999986      -2.40555536E-12
  0.677999973      -2.69803581E-12
  0.679000020      -2.92551075E-12
  0.680000007      -3.07768871E-12
  0.680999994      -3.14606197E-12
  0.681999981      -3.12423698E-12
  0.683000028      -3.00821564E-12
  0.684000015      -2.79661537E-12
  0.685000002      -2.49081962E-12
  0.685999990      -2.09505243E-12
  0.686999977      -1.61637208E-12
  0.688000023      -1.06458061E-12
  0.689000010      -4.52049260E-13
  0.689999998       2.06538074E-13
  0.690999985       8.94517099E-13
  0.691999972       1.59364666E-12
  0.693000019       2.28457270E-12
  0.694000006       2.94734029E-12
  0.694999993       3.56194197E-12
  0.695999980       4.10888728E-12
  0.697000027       4.56977641E-12
  0.698000014       4.92786367E-12
  0.699000001       5.16859298E-12
  0.699999988       5.28008887E-12
  0.700999975       5.25358706E-12
  0.702000022       5.08379276E-12
  0.703000009       4.76915252E-12
  0.703999996       4.31202773E-12
  0.704999983       3.71876531E-12
  0.705999970       2.99965781E-12
  0.707000017       2.16879336E-12
  0.708000004       1.24379326E-12
  0.708999991       2.45444778E-13
  0.709999979      -8.02764756E-13
  0.711000025      -1.87520268E-12
  0.712000012      -2.94472042E-12
  0.713000000      -3.98334187E-12
  0.713999987      -4.96299182E-12
  0.714999974      -5.85624908E-12
  0.716000021      -6.63709886E-12
  0.717000008      -7.28166485E-12
  0.717999995      -7.76890444E-12
  0.718999982      -8.08123967E-12
  0.720000029      -8.20511107E-12
  0.721000016      -8.13143389E-12
  0.722000003      -7.85594246E-12
  0.722999990      -7.37941565E-12
  0.723999977      -6.70777019E-12
  0.725000024      -5.85201419E-12
  0.726000011      -4.82807024E-12
  0.726999998      -3.65645795E-12
  0.727999985      -2.36185550E-12
  0.728999972      -9.72539107E-13
  0.730000019       4.80278740E-13
  0.731000006       1.96319827E-12
  0.731999993       3.44144721E-12
  0.732999980       4.87974418E-12
  0.734000027       6.24318219E-12
  0.735000014       7.49811324E-12
  0.736000001       8.61300527E-12
  0.736999989       9.55925443E-12
  0.737999976       1.03119241E-11
  0.739000022       1.08503961E-11
  0.740000010       1.11589115E-11
  0.740999997       1.12269890E-11
  0.741999984       1.10497106E-11
  0.742999971       1.06278658E-11
  0.744000018       9.96794661E-12
  0.745000005       9.08200338E-12
  0.745999992       7.98735904E-12
  0.746999979       6.70619029E-12
  0.748000026       5.26498983E-12
  0.749000013       3.69392754E-12
  0.750000000       2.02612341E-12
  0.750999987       2.96852061E-13
  0.751999974      -1.45729316E-12
  0.753000021      -3.19925900E-12
  0.754000008      -4.89239031E-12
  0.754999995      -6.50126480E-12
  0.755999982      -7.99248254E-12
  0.757000029      -9.33539270E-12
  0.758000016      -1.05027402E-11
  0.759000003      -1.14712146E-11
  0.759999990      -1.22218945E-11
  0.760999978      -1.27405768E-11
  0.762000024      -1.30179877E-11
  0.763000011      -1.30498728E-11
  0.763999999      -1.28369719E-11
  0.764999986      -1.23848830E-11
  0.765999973      -1.17038176E-11
  0.767000020      -1.08082666E-11
  0.768000007      -9.71658778E-12
  0.768999994      -8.45052674E-12
  0.769999981      -7.03468620E-12
  0.771000028      -5.49596002E-12
  0.772000015      -3.86294989E-12
  0.773000002      -2.16537595E-12
  0.773999989      -4.33495741E-13
  0.774999976       1.30245402E-12
  0.776000023       3.01278382E-12
  0.777000010       4.66884040E-12
  0.777999997       6.24344673E-12
  0.778999984       7.71129254E-12
  0.779999971       9.04927262E-12
  0.781000018       1.02367663E-11
  0.782000005       1.12558686E-11
  0.782999992       1.20915725E-11
  0.783999979       1.27318980E-11
  0.785000026       1.31679841E-11
  0.786000013       1.33941382E-11
  0.787000000       1.34078504E-11
  0.787999988       1.32097762E-11
  0.788999975       1.28036921E-11
  0.790000021       1.21964270E-11
  0.791000009       1.13977629E-11
  0.791999996       1.04203096E-11
  0.792999983       9.27936113E-12
  0.794000030       7.99272020E-12
  0.795000017       6.58048963E-12
  0.796000004       5.06483831E-12
  0.796999991       3.46972733E-12
  0.797999978       1.82060118E-12
  0.799000025       1.44042005E-13
  0.800000012      -1.53261670E-12
  0.800999999      -3.18170837E-12
  0.801999986      -4.77568766E-12
  0.802999973      -6.28761323E-12
  0.804000020      -7.69164853E-12
  0.805000007      -8.96358161E-12
  0.805999994      -1.00813385E-11
  0.806999981      -1.10254869E-11
  0.808000028      -1.17797092E-11
  0.809000015      -1.23312367E-11
  0.810000002      -1.26712304E-11
  0.810999990      -1.27950766E-11
  0.811999977      -1.27026029E-11
  0.813000023      -1.23981892E-11
  0.814000010      -1.18907670E-11
  0.814999998      -1.11936987E-11
  0.815999985      -1.03245329E-11
  0.816999972      -9.30463345E-12
  0.818000019      -8.15868120E-12
  0.819000006      -6.91407218E-12
  0.819999993      -5.60021300E-12
  0.820999980      -4.24773194E-12
  0.822000027      -2.88762677E-12
  0.823000014      -1.55037875E-12
  0.824000001      -2.65058104E-13
  0.824999988       9.41548922E-13
  0.825999975       2.04576460E-12
  0.827000022       3.02776229E-12
  0.828000009       3.87219076E-12
  0.828999996       4.56867313E-12
  0.829999983       5.11213814E-12
  0.830999970       5.50297178E-12
  0.832000017       5.74698232E-12
  0.833000004       5.85517225E-12
  0.833999991       5.84331064E-12
  0.834999979       5.73131950E-12
  0.836000025       5.54249398E-12
  0.837000012       5.30256871E-12
  0.838000000       5.03866783E-12
  0.838999987       4.77817568E-12
  0.839999974       4.54756198E-12
  0.841000021       4.37120392E-12
  0.842000008       4.27025602E-12
  0.842999995       4.26161363E-12
  0.843999982       4.35700347E-12
  0.845000029       4.56225032E-12
  0.846000016       4.87676045E-12
  0.847000003       5.29323503E-12
  0.847999990       5.79764275E-12
  0.848999977       6.36947569E-12
  0.850000024       6.98226546E-12
  0.851000011       7.60436852E-12
  0.851999998       8.20000838E-12
  0.852999985       8.73052065E-12
  0.853999972       9.15578811E-12
  0.855000019       9.43580977E-12
  0.856000006       9.53234106E-12