  -5.9999999999999998E-002     0.0000000000000000     
  -5.9899999999999995E-002     0.0000000000000000     
  -5.9799999999999999E-002     0.0000000000000000     
  -5.9699999999999996E-002     0.0000000000000000     
  -5.9600000000000000E-002     0.0000000000000000     
  -5.9499999999999997E-002     0.0000000000000000     
  -5.9399999999999994E-002     0.0000000000000000     
  -5.9299999999999999E-002     0.0000000000000000     
  -5.9199999999999996E-002     0.0000000000000000     
  -5.9100000000000000E-002     0.0000000000000000     
  -5.8999999999999997E-002     0.0000000000000000     
  -5.8900000000000001E-002     0.0000000000000000     
  -5.8799999999999998E-002     0.0000000000000000     
  -5.8699999999999995E-002     0.0000000000000000     
  -5.8599999999999999E-002     0.0000000000000000     
  -5.8499999999999996E-002     0.0000000000000000     
  -5.8400000000000001E-002     0.0000000000000000     
  -5.8299999999999998E-002     0.0000000000000000     
  -5.8199999999999995E-002     0.0000000000000000     
  -5.8099999999999999E-002     0.0000000000000000     
  -5.7999999999999996E-002     0.0000000000000000     
  -5.7900000000000000E-002     0.0000000000000000     
  -5.7799999999999997E-002     0.0000000000000000     
  -5.7700000000000001E-002     0.0000000000000000     
  -5.7599999999999998E-002     0.0000000000000000     
  -5.7499999999999996E-002     0.0000000000000000     
  -5.7400000000000000E-002     0.0000000000000000     
  -5.7299999999999997E-002     0.0000000000000000     
  -5.7200000000000001E-002     0.0000000000000000     
  -5.7099999999999998E-002     0.0000000000000000     
  -5.6999999999999995E-002     0.0000000000000000     
  -5.6899999999999999E-002     0.0000000000000000     
  -5.6799999999999996E-002     0.0000000000000000     
  -5.6700000000000000E-002     0.0000000000000000     
  -5.6599999999999998E-002     0.0000000000000000     
  -5.6499999999999995E-002     0.0000000000000000     
  -5.6399999999999999E-002     0.0000000000000000     
  -5.6299999999999996E-002     0.0000000000000000     
  -5.6200000000000000E-002     0.0000000000000000     
  -5.6099999999999997E-002     0.0000000000000000     
  -5.5999999999999994E-002     0.0000000000000000     
  -5.5899999999999998E-002     0.0000000000000000     
  -5.5799999999999995E-002     0.0000000000000000     
  -5.5700000000000000E-002     0.0000000000000000     
  -5.5599999999999997E-002     0.0000000000000000     
  -5.5499999999999994E-002     0.0000000000000000     
  -5.5399999999999998E-002     0.0000000000000000     
  -5.5299999999999995E-002     0.0000000000000000     
  -5.5199999999999999E-002     0.0000000000000000     
  -5.5099999999999996E-002     0.0000000000000000     
  -5.5000000000000000E-002     0.0000000000000000     
  -5.4899999999999997E-002     0.0000000000000000     
  -5.4799999999999995E-002     0.0000000000000000     
  -5.4699999999999999E-002     0.0000000000000000     
  -5.4599999999999996E-002     0.0000000000000000     
  -5.4500000000000000E-002     0.0000000000000000     
  -5.4399999999999997E-002     0.0000000000000000     
  -5.4300000000000001E-002     0.0000000000000000     
  -5.4199999999999998E-002     0.0000000000000000     
  -5.4099999999999995E-002     0.0000000000000000     
  -5.3999999999999999E-002     0.0000000000000000     
  -5.3899999999999997E-002     0.0000000000000000     
  -5.3800000000000001E-002     0.0000000000000000     
  -5.3699999999999998E-002     0.0000000000000000     
  -5.3599999999999995E-002     0.0000000000000000     
  -5.3499999999999999E-002     0.0000000000000000     
  -5.3399999999999996E-002     0.0000000000000000     
  -5.3300000000000000E-002     0.0000000000000000     
  -5.3199999999999997E-002     0.0000000000000000     
  -5.3099999999999994E-002     0.0000000000000000     
  -5.2999999999999999E-002     0.0000000000000000     
  -5.2899999999999996E-002     0.0000000000000000     
  -5.2800000000000000E-002     0.0000000000000000     
  -5.2699999999999997E-002     0.0000000000000000     
  -5.2599999999999994E-002     0.0000000000000000     
  -5.2499999999999998E-002     0.0000000000000000     
  -5.2399999999999995E-002     0.0000000000000000     
  -5.2299999999999999E-002     0.0000000000000000     
  -5.2199999999999996E-002     0.0000000000000000     
  -5.2099999999999994E-002     0.0000000000000000     
  -5.1999999999999998E-002     0.0000000000000000     
  -5.1900000000000002E-002     0.0000000000000000     
  -5.1799999999999999E-002     0.0000000000000000     
  -5.1699999999999996E-002     0.0000000000000000     
  -5.1599999999999993E-002     0.0000000000000000     
  -5.1499999999999997E-002     0.0000000000000000     
  -5.1400000000000001E-002     0.0000000000000000     
  -5.1299999999999998E-002     0.0000000000000000     
  -5.1199999999999996E-002     0.0000000000000000     
  -5.1100000000000000E-002     0.0000000000000000     
  -5.0999999999999997E-002     0.0000000000000000     
  -5.0900000000000001E-002     0.0000000000000000     
  -5.0799999999999998E-002     0.0000000000000000     
  -5.0699999999999995E-002     0.0000000000000000     
  -5.0599999999999999E-002     0.0000000000000000     
  -5.0499999999999996E-002     0.0000000000000000     
  -5.0400000000000000E-002     0.0000000000000000     
  -5.0299999999999997E-002     0.0000000000000000     
  -5.0199999999999995E-002     0.0000000000000000     
  -5.0099999999999999E-002     0.0000000000000000     
  -4.9999999999999996E-002     0.0000000000000000     
  -4.9900000000000000E-002     0.0000000000000000     
  -4.9799999999999997E-002     0.0000000000000000     
  -4.9699999999999994E-002     0.0000000000000000     
  -4.9599999999999998E-002     0.0000000000000000     
  -4.9499999999999995E-002     0.0000000000000000     
  -4.9399999999999999E-002     0.0000000000000000     
  -4.9299999999999997E-002     0.0000000000000000     
  -4.9199999999999994E-002     0.0000000000000000     
  -4.9099999999999998E-002     0.0000000000000000     
  -4.8999999999999995E-002     0.0000000000000000     
  -4.8899999999999999E-002     0.0000000000000000     
  -4.8799999999999996E-002     0.0000000000000000     
  -4.8699999999999993E-002     0.0000000000000000     
  -4.8599999999999997E-002     0.0000000000000000     
  -4.8500000000000001E-002     0.0000000000000000     
  -4.8399999999999999E-002     0.0000000000000000     
  -4.8299999999999996E-002     0.0000000000000000     
  -4.8200000000000000E-002     0.0000000000000000     
  -4.8099999999999997E-002     0.0000000000000000     
  -4.8000000000000001E-002     0.0000000000000000     
  -4.7899999999999998E-002     0.0000000000000000     
  -4.7799999999999995E-002     0.0000000000000000     
  -4.7699999999999999E-002     0.0000000000000000     
  -4.7599999999999996E-002     0.0000000000000000     
  -4.7500000000000001E-002     0.0000000000000000     
  -4.7399999999999998E-002     0.0000000000000000     
  -4.7299999999999995E-002     0.0000000000000000     
  -4.7199999999999999E-002     0.0000000000000000     
  -4.7099999999999996E-002     0.0000000000000000     
  -4.7000000000000000E-002     0.0000000000000000     
  -4.6899999999999997E-002     0.0000000000000000     
  -4.6799999999999994E-002     0.0000000000000000     
  -4.6699999999999998E-002     0.0000000000000000     
  -4.6599999999999996E-002     0.0000000000000000     
  -4.6500000000000000E-002     0.0000000000000000     
  -4.6399999999999997E-002     0.0000000000000000     
  -4.6299999999999994E-002     0.0000000000000000     
  -4.6199999999999998E-002     0.0000000000000000     
  -4.6099999999999995E-002     0.0000000000000000     
  -4.5999999999999999E-002     0.0000000000000000     
  -4.5899999999999996E-002     0.0000000000000000     
  -4.5799999999999993E-002     0.0000000000000000     
  -4.5699999999999998E-002     0.0000000000000000     
  -4.5599999999999995E-002     0.0000000000000000     
  -4.5499999999999999E-002     0.0000000000000000     
  -4.5399999999999996E-002     0.0000000000000000     
  -4.5299999999999993E-002     0.0000000000000000     
  -4.5199999999999997E-002     0.0000000000000000     
  -4.5100000000000001E-002     0.0000000000000000     
  -4.4999999999999998E-002     0.0000000000000000     
  -4.4899999999999995E-002     0.0000000000000000     
  -4.4800000000000000E-002     0.0000000000000000     
  -4.4699999999999997E-002     0.0000000000000000     
  -4.4600000000000001E-002     0.0000000000000000     
  -4.4499999999999998E-002     0.0000000000000000     
  -4.4399999999999995E-002     0.0000000000000000     
  -4.4299999999999992E-002     0.0000000000000000     
  -4.4199999999999996E-002     0.0000000000000000     
  -4.4100000000000000E-002     0.0000000000000000     
  -4.3999999999999997E-002     0.0000000000000000     
  -4.3899999999999995E-002     0.0000000000000000     
  -4.3799999999999999E-002     0.0000000000000000     
  -4.3699999999999996E-002     0.0000000000000000     
  -4.3600000000000000E-002     0.0000000000000000     
  -4.3499999999999997E-002     0.0000000000000000     
  -4.3399999999999994E-002     0.0000000000000000     
  -4.3299999999999998E-002     0.0000000000000000     
  -4.3199999999999995E-002     0.0000000000000000     
  -4.3099999999999999E-002     0.0000000000000000     
  -4.2999999999999997E-002     0.0000000000000000     
  -4.2899999999999994E-002     0.0000000000000000     
  -4.2799999999999998E-002     0.0000000000000000     
  -4.2700000000000002E-002     0.0000000000000000     
  -4.2599999999999999E-002     0.0000000000000000     
  -4.2499999999999996E-002     0.0000000000000000     
  -4.2399999999999993E-002     0.0000000000000000     
  -4.2299999999999997E-002     0.0000000000000000     
  -4.2200000000000001E-002     0.0000000000000000     
  -4.2099999999999999E-002     0.0000000000000000     
  -4.1999999999999996E-002     0.0000000000000000     
  -4.1899999999999993E-002     0.0000000000000000     
  -4.1799999999999997E-002     0.0000000000000000     
  -4.1700000000000001E-002     0.0000000000000000     
  -4.1599999999999998E-002     0.0000000000000000     
  -4.1499999999999995E-002     0.0000000000000000     
  -4.1399999999999992E-002     0.0000000000000000     
  -4.1299999999999996E-002     0.0000000000000000     
  -4.1200000000000001E-002     0.0000000000000000     
  -4.1099999999999998E-002     0.0000000000000000     
  -4.0999999999999995E-002     0.0000000000000000     
  -4.0899999999999992E-002     0.0000000000000000     
  -4.0799999999999996E-002     0.0000000000000000     
  -4.0700000000000000E-002     0.0000000000000000     
  -4.0599999999999997E-002     0.0000000000000000     
  -4.0499999999999994E-002     0.0000000000000000     
  -4.0399999999999998E-002     0.0000000000000000     
  -4.0299999999999996E-002     0.0000000000000000     
  -4.0200000000000000E-002     0.0000000000000000     
  -4.0099999999999997E-002     0.0000000000000000     
  -3.9999999999999994E-002     0.0000000000000000     
  -3.9899999999999998E-002     0.0000000000000000     
  -3.9799999999999995E-002     0.0000000000000000     
  -3.9699999999999999E-002     0.0000000000000000     
  -3.9599999999999996E-002     0.0000000000000000     
  -3.9499999999999993E-002     0.0000000000000000     
  -3.9399999999999998E-002     0.0000000000000000     
  -3.9300000000000002E-002     0.0000000000000000     
  -3.9199999999999999E-002     0.0000000000000000     
  -3.9099999999999996E-002     0.0000000000000000     
  -3.8999999999999993E-002     0.0000000000000000     
  -3.8899999999999997E-002     0.0000000000000000     
  -3.8800000000000001E-002     0.0000000000000000     
  -3.8699999999999998E-002     0.0000000000000000     
  -3.8599999999999995E-002     0.0000000000000000     
  -3.8499999999999993E-002     0.0000000000000000     
  -3.8399999999999997E-002     0.0000000000000000     
  -3.8300000000000001E-002     0.0000000000000000     
  -3.8199999999999998E-002     0.0000000000000000     
  -3.8099999999999995E-002     0.0000000000000000     
  -3.7999999999999992E-002     0.0000000000000000     
  -3.7899999999999996E-002     0.0000000000000000     
  -3.7800000000000000E-002     0.0000000000000000     
  -3.7699999999999997E-002     0.0000000000000000     
  -3.7599999999999995E-002     0.0000000000000000     
  -3.7499999999999992E-002     0.0000000000000000     
  -3.7399999999999996E-002     0.0000000000000000     
  -3.7300000000000000E-002     0.0000000000000000     
  -3.7199999999999997E-002     0.0000000000000000     
  -3.7099999999999994E-002     0.0000000000000000     
  -3.6999999999999998E-002     0.0000000000000000     
  -3.6899999999999995E-002     0.0000000000000000     
  -3.6799999999999999E-002     0.0000000000000000     
  -3.6699999999999997E-002     0.0000000000000000     
  -3.6599999999999994E-002     0.0000000000000000     
  -3.6499999999999998E-002     0.0000000000000000     
  -3.6400000000000002E-002     0.0000000000000000     
  -3.6299999999999999E-002     0.0000000000000000     
  -3.6199999999999996E-002     0.0000000000000000     
  -3.6099999999999993E-002     0.0000000000000000     
  -3.5999999999999997E-002     0.0000000000000000     
  -3.5900000000000001E-002     0.0000000000000000     
  -3.5799999999999998E-002     0.0000000000000000     
  -3.5699999999999996E-002     0.0000000000000000     
  -3.5599999999999993E-002     0.0000000000000000     
  -3.5499999999999997E-002     0.0000000000000000     
  -3.5400000000000001E-002     0.0000000000000000     
  -3.5299999999999998E-002     0.0000000000000000     
  -3.5199999999999995E-002     0.0000000000000000     
  -3.5099999999999992E-002     0.0000000000000000     
  -3.4999999999999996E-002     0.0000000000000000     
  -3.4900000000000000E-002     0.0000000000000000     
  -3.4799999999999998E-002     0.0000000000000000     
  -3.4699999999999995E-002     0.0000000000000000     
  -3.4599999999999992E-002     0.0000000000000000     
  -3.4499999999999996E-002     0.0000000000000000     
  -3.4400000000000000E-002     0.0000000000000000     
  -3.4299999999999997E-002     0.0000000000000000     
  -3.4199999999999994E-002     0.0000000000000000     
  -3.4099999999999991E-002     0.0000000000000000     
  -3.3999999999999996E-002     0.0000000000000000     
  -3.3900000000000000E-002     0.0000000000000000     
  -3.3799999999999997E-002     0.0000000000000000     
  -3.3699999999999994E-002     0.0000000000000000     
  -3.3599999999999998E-002     0.0000000000000000     
  -3.3499999999999995E-002     0.0000000000000000     
  -3.3399999999999999E-002     0.0000000000000000     
  -3.3299999999999996E-002     0.0000000000000000     
  -3.3199999999999993E-002     0.0000000000000000     
  -3.3099999999999997E-002     0.0000000000000000     
  -3.3000000000000002E-002     0.0000000000000000     
  -3.2899999999999999E-002     0.0000000000000000     
  -3.2799999999999996E-002     0.0000000000000000     
  -3.2699999999999993E-002     0.0000000000000000     
  -3.2599999999999997E-002     0.0000000000000000     
  -3.2500000000000001E-002     0.0000000000000000     
  -3.2399999999999998E-002     0.0000000000000000     
  -3.2299999999999995E-002     0.0000000000000000     
  -3.2199999999999993E-002     0.0000000000000000     
  -3.2099999999999997E-002     0.0000000000000000     
  -3.2000000000000001E-002     0.0000000000000000     
  -3.1899999999999998E-002     0.0000000000000000     
  -3.1799999999999995E-002     0.0000000000000000     
  -3.1699999999999992E-002     0.0000000000000000     
  -3.1599999999999996E-002     0.0000000000000000     
  -3.1500000000000000E-002     0.0000000000000000     
  -3.1399999999999997E-002     0.0000000000000000     
  -3.1299999999999994E-002     0.0000000000000000     
  -3.1199999999999995E-002     0.0000000000000000     
  -3.1099999999999996E-002     0.0000000000000000     
  -3.0999999999999996E-002     0.0000000000000000     
  -3.0899999999999997E-002     0.0000000000000000     
  -3.0799999999999998E-002     0.0000000000000000     
  -3.0699999999999995E-002     0.0000000000000000     
  -3.0599999999999995E-002     0.0000000000000000     
  -3.0499999999999996E-002     0.0000000000000000     
  -3.0399999999999996E-002     0.0000000000000000     
  -3.0299999999999997E-002     0.0000000000000000     
  -3.0199999999999998E-002     0.0000000000000000     
  -3.0099999999999995E-002     0.0000000000000000     
  -2.9999999999999995E-002     0.0000000000000000     
  -2.9899999999999996E-002     0.0000000000000000     
  -2.9799999999999997E-002     0.0000000000000000     
  -2.9699999999999997E-002     0.0000000000000000     
  -2.9599999999999998E-002     0.0000000000000000     
  -2.9499999999999995E-002     0.0000000000000000     
  -2.9399999999999996E-002     0.0000000000000000     
  -2.9299999999999996E-002     0.0000000000000000     
  -2.9199999999999997E-002     0.0000000000000000     
  -2.9099999999999997E-002     0.0000000000000000     
  -2.8999999999999998E-002     0.0000000000000000     
  -2.8899999999999995E-002     0.0000000000000000     
  -2.8799999999999996E-002     0.0000000000000000     
  -2.8699999999999996E-002     0.0000000000000000     
  -2.8599999999999993E-002     0.0000000000000000     
  -2.8499999999999998E-002     0.0000000000000000     
  -2.8399999999999995E-002     0.0000000000000000     
  -2.8299999999999999E-002     0.0000000000000000     
  -2.8199999999999996E-002     0.0000000000000000     
  -2.8099999999999993E-002     0.0000000000000000     
  -2.7999999999999997E-002     0.0000000000000000     
  -2.7899999999999994E-002     0.0000000000000000     
  -2.7799999999999998E-002     0.0000000000000000     
  -2.7699999999999995E-002     0.0000000000000000     
  -2.7600000000000000E-002     0.0000000000000000     
  -2.7499999999999997E-002     0.0000000000000000     
  -2.7399999999999994E-002     0.0000000000000000     
  -2.7299999999999998E-002     0.0000000000000000     
  -2.7199999999999995E-002     0.0000000000000000     
  -2.7099999999999999E-002     0.0000000000000000     
  -2.6999999999999996E-002     0.0000000000000000     
  -2.6899999999999993E-002     0.0000000000000000     
  -2.6799999999999997E-002     0.0000000000000000     
  -2.6699999999999995E-002     0.0000000000000000     
  -2.6599999999999999E-002     0.0000000000000000     
  -2.6499999999999996E-002     0.0000000000000000     
  -2.6399999999999993E-002     0.0000000000000000     
  -2.6299999999999997E-002     0.0000000000000000     
  -2.6199999999999994E-002     0.0000000000000000     
  -2.6099999999999998E-002     0.0000000000000000     
  -2.5999999999999995E-002     0.0000000000000000     
  -2.5899999999999999E-002     0.0000000000000000     
  -2.5799999999999997E-002     0.0000000000000000     
  -2.5699999999999994E-002     0.0000000000000000     
  -2.5599999999999998E-002     0.0000000000000000     
  -2.5499999999999995E-002     0.0000000000000000     
  -2.5399999999999999E-002     0.0000000000000000     
  -2.5299999999999996E-002     0.0000000000000000     
  -2.5199999999999993E-002     0.0000000000000000     
  -2.5099999999999997E-002     0.0000000000000000     
  -2.4999999999999994E-002     0.0000000000000000     
  -2.4899999999999999E-002     0.0000000000000000     
  -2.4799999999999996E-002     0.0000000000000000     
  -2.4699999999999993E-002     0.0000000000000000     
  -2.4599999999999997E-002     0.0000000000000000     
  -2.4499999999999994E-002     0.0000000000000000     
  -2.4399999999999998E-002     0.0000000000000000     
  -2.4299999999999995E-002     0.0000000000000000     
  -2.4199999999999999E-002     0.0000000000000000     
  -2.4099999999999996E-002     0.0000000000000000     
  -2.3999999999999994E-002     0.0000000000000000     
  -2.3899999999999998E-002     0.0000000000000000     
  -2.3799999999999995E-002     0.0000000000000000     
  -2.3699999999999999E-002     0.0000000000000000     
  -2.3599999999999996E-002     0.0000000000000000     
  -2.3499999999999993E-002     0.0000000000000000     
  -2.3399999999999997E-002     0.0000000000000000     
  -2.3299999999999994E-002     0.0000000000000000     
  -2.3199999999999998E-002     0.0000000000000000     
  -2.3099999999999996E-002     0.0000000000000000     
  -2.2999999999999993E-002     0.0000000000000000     
  -2.2899999999999997E-002     0.0000000000000000     
  -2.2799999999999994E-002     0.0000000000000000     
  -2.2699999999999998E-002     0.0000000000000000     
  -2.2599999999999995E-002     0.0000000000000000     
  -2.2499999999999999E-002     0.0000000000000000     
  -2.2399999999999996E-002     0.0000000000000000     
  -2.2299999999999993E-002     0.0000000000000000     
  -2.2199999999999998E-002     0.0000000000000000     
  -2.2099999999999995E-002     0.0000000000000000     
  -2.1999999999999999E-002     0.0000000000000000     
  -2.1899999999999996E-002     0.0000000000000000     
  -2.1799999999999993E-002     0.0000000000000000     
  -2.1699999999999997E-002     0.0000000000000000     
  -2.1599999999999994E-002     0.0000000000000000     
  -2.1499999999999998E-002     0.0000000000000000     
  -2.1399999999999995E-002     0.0000000000000000     
  -2.1299999999999993E-002     0.0000000000000000     
  -2.1199999999999997E-002     0.0000000000000000     
  -2.1099999999999994E-002     0.0000000000000000     
  -2.0999999999999998E-002     0.0000000000000000     
  -2.0899999999999995E-002     0.0000000000000000     
  -2.0799999999999999E-002     0.0000000000000000     
  -2.0699999999999996E-002     0.0000000000000000     
  -2.0599999999999993E-002     0.0000000000000000     
  -2.0499999999999997E-002     0.0000000000000000     
  -2.0399999999999995E-002     0.0000000000000000     
  -2.0299999999999999E-002     0.0000000000000000     
  -2.0199999999999996E-002     0.0000000000000000     
  -2.0099999999999993E-002     0.0000000000000000     
  -1.9999999999999997E-002     0.0000000000000000     
  -1.9899999999999994E-002     0.0000000000000000     
  -1.9799999999999998E-002     0.0000000000000000     
  -1.9699999999999995E-002     0.0000000000000000     
  -1.9599999999999992E-002     0.0000000000000000     
  -1.9499999999999997E-002     0.0000000000000000     
  -1.9399999999999994E-002     0.0000000000000000     
  -1.9299999999999998E-002     0.0000000000000000     
  -1.9199999999999995E-002     0.0000000000000000     
  -1.9099999999999999E-002     0.0000000000000000     
  -1.8999999999999996E-002     0.0000000000000000     
  -1.8899999999999993E-002     0.0000000000000000     
  -1.8799999999999997E-002     0.0000000000000000     
  -1.8699999999999994E-002     0.0000000000000000     
  -1.8599999999999998E-002     0.0000000000000000     
  -1.8499999999999996E-002     0.0000000000000000     
  -1.8399999999999993E-002     0.0000000000000000     
  -1.8299999999999997E-002     0.0000000000000000     
  -1.8199999999999994E-002     0.0000000000000000     
  -1.8099999999999998E-002     0.0000000000000000     
  -1.7999999999999995E-002     0.0000000000000000     
  -1.7899999999999992E-002     0.0000000000000000     
  -1.7799999999999996E-002     0.0000000000000000     
  -1.7699999999999994E-002     0.0000000000000000     
  -1.7599999999999998E-002     0.0000000000000000     
  -1.7499999999999995E-002     0.0000000000000000     
  -1.7399999999999999E-002     0.0000000000000000     
  -1.7299999999999996E-002     0.0000000000000000     
  -1.7199999999999993E-002     0.0000000000000000     
  -1.7099999999999997E-002     0.0000000000000000     
  -1.6999999999999994E-002     0.0000000000000000     
  -1.6899999999999998E-002     0.0000000000000000     
  -1.6799999999999995E-002     0.0000000000000000     
  -1.6699999999999993E-002     0.0000000000000000     
  -1.6599999999999997E-002     0.0000000000000000     
  -1.6499999999999994E-002     0.0000000000000000     
  -1.6399999999999998E-002     0.0000000000000000     
  -1.6299999999999995E-002     0.0000000000000000     
  -1.6199999999999999E-002     0.0000000000000000     
  -1.6099999999999996E-002     0.0000000000000000     
  -1.5999999999999993E-002     0.0000000000000000     
  -1.5899999999999997E-002     0.0000000000000000     
  -1.5799999999999995E-002     0.0000000000000000     
  -1.5699999999999999E-002     0.0000000000000000     
  -1.5599999999999996E-002     0.0000000000000000     
  -1.5499999999999993E-002     0.0000000000000000     
  -1.5399999999999997E-002     0.0000000000000000     
  -1.5299999999999994E-002     0.0000000000000000     
  -1.5199999999999998E-002     0.0000000000000000     
  -1.5099999999999995E-002     0.0000000000000000     
  -1.4999999999999993E-002     0.0000000000000000     
  -1.4899999999999997E-002     0.0000000000000000     
  -1.4799999999999994E-002     0.0000000000000000     
  -1.4699999999999998E-002     0.0000000000000000     
  -1.4599999999999995E-002     0.0000000000000000     
  -1.4499999999999999E-002     0.0000000000000000     
  -1.4399999999999996E-002     0.0000000000000000     
  -1.4299999999999993E-002     0.0000000000000000     
  -1.4199999999999997E-002     0.0000000000000000     
  -1.4099999999999994E-002     0.0000000000000000     
  -1.3999999999999999E-002     0.0000000000000000     
  -1.3899999999999996E-002     0.0000000000000000     
  -1.3799999999999993E-002     0.0000000000000000     
  -1.3699999999999997E-002     0.0000000000000000     
  -1.3599999999999994E-002     0.0000000000000000     
  -1.3499999999999998E-002     0.0000000000000000     
  -1.3399999999999995E-002     0.0000000000000000     
  -1.3299999999999992E-002     0.0000000000000000     
  -1.3199999999999996E-002     0.0000000000000000     
  -1.3099999999999994E-002     0.0000000000000000     
  -1.2999999999999998E-002     0.0000000000000000     
  -1.2899999999999995E-002     0.0000000000000000     
  -1.2799999999999999E-002     0.0000000000000000     
  -1.2699999999999996E-002     0.0000000000000000     
  -1.2599999999999993E-002     0.0000000000000000     
  -1.2499999999999997E-002     0.0000000000000000     
  -1.2399999999999994E-002     0.0000000000000000     
  -1.2299999999999998E-002     0.0000000000000000     
  -1.2199999999999996E-002     0.0000000000000000     
  -1.2099999999999993E-002     0.0000000000000000     
  -1.1999999999999997E-002     0.0000000000000000     
  -1.1899999999999994E-002     0.0000000000000000     
  -1.1799999999999998E-002     0.0000000000000000     
  -1.1699999999999995E-002     0.0000000000000000     
  -1.1599999999999992E-002     0.0000000000000000     
  -1.1499999999999996E-002     0.0000000000000000     
  -1.1399999999999993E-002     0.0000000000000000     
  -1.1299999999999998E-002     0.0000000000000000     
  -1.1199999999999995E-002     0.0000000000000000     
  -1.1099999999999999E-002     0.0000000000000000     
  -1.0999999999999996E-002     0.0000000000000000     
  -1.0899999999999993E-002     0.0000000000000000     
  -1.0799999999999997E-002     0.0000000000000000     
  -1.0699999999999994E-002     0.0000000000000000     
  -1.0599999999999998E-002     0.0000000000000000     
  -1.0499999999999995E-002     0.0000000000000000     
  -1.0399999999999993E-002     0.0000000000000000     
  -1.0299999999999997E-002     0.0000000000000000     
  -1.0199999999999994E-002     0.0000000000000000     
  -1.0099999999999998E-002     0.0000000000000000     
  -9.9999999999999950E-003     0.0000000000000000     
  -9.8999999999999921E-003     0.0000000000000000     
  -9.7999999999999962E-003     0.0000000000000000     
  -9.6999999999999933E-003     0.0000000000000000     
  -9.5999999999999974E-003     0.0000000000000000     
  -9.4999999999999946E-003     0.0000000000000000     
  -9.3999999999999986E-003     0.0000000000000000     
  -9.2999999999999958E-003     0.0000000000000000     
  -9.1999999999999929E-003     0.0000000000000000     
  -9.0999999999999970E-003     0.0000000000000000     
  -8.9999999999999941E-003     0.0000000000000000     
  -8.8999999999999982E-003     0.0000000000000000     
  -8.7999999999999953E-003     0.0000000000000000     
  -8.6999999999999925E-003     0.0000000000000000     
  -8.5999999999999965E-003     0.0000000000000000     
  -8.4999999999999937E-003     0.0000000000000000     
  -8.3999999999999977E-003     0.0000000000000000     
  -8.2999999999999949E-003     0.0000000000000000     
  -8.1999999999999920E-003     0.0000000000000000     
  -8.0999999999999961E-003     0.0000000000000000     
  -7.9999999999999932E-003     0.0000000000000000     
  -7.8999999999999973E-003     0.0000000000000000     
  -7.7999999999999944E-003     0.0000000000000000     
  -7.6999999999999985E-003     0.0000000000000000     
  -7.5999999999999956E-003     0.0000000000000000     
  -7.4999999999999928E-003     0.0000000000000000     
  -7.3999999999999969E-003     0.0000000000000000     
  -7.2999999999999940E-003     0.0000000000000000     
  -7.1999999999999981E-003     0.0000000000000000     
  -7.0999999999999952E-003     0.0000000000000000     
  -6.9999999999999923E-003     0.0000000000000000     
  -6.8999999999999964E-003     0.0000000000000000     
  -6.7999999999999935E-003     0.0000000000000000     
  -6.6999999999999976E-003     0.0000000000000000     
  -6.5999999999999948E-003     0.0000000000000000     
  -6.4999999999999919E-003     0.0000000000000000     
  -6.3999999999999960E-003     0.0000000000000000     
  -6.2999999999999931E-003     0.0000000000000000     
  -6.1999999999999972E-003     0.0000000000000000     
  -6.0999999999999943E-003     0.0000000000000000     
  -5.9999999999999984E-003     0.0000000000000000     
  -5.8999999999999955E-003     0.0000000000000000     
  -5.7999999999999927E-003     0.0000000000000000     
  -5.6999999999999967E-003     0.0000000000000000     
  -5.5999999999999939E-003     0.0000000000000000     