   0.00000000       0.00000000    
   5.00000024E-04  -3.31164610E-12
   1.00000005E-03  -9.56540055E-12
   1.50000001E-03  -1.78243774E-11
   2.00000009E-03  -2.66795995E-11
   2.49999994E-03  -3.44042260E-11
   3.00000003E-03  -3.91528962E-11
   3.50000011E-03  -3.91877641E-11
   4.00000019E-03  -3.31097129E-11
   4.49999981E-03  -2.00719649E-11
   4.99999989E-03   4.58501035E-14
   5.49999997E-03   2.65226261E-11
   6.00000005E-03   5.77546830E-11
   6.50000013E-03   9.12976847E-11
   7.00000022E-03   1.23993940E-10
   7.49999983E-03   1.52179977E-10
   8.00000038E-03   1.71962097E-10
   8.50000046E-03   1.79541312E-10
   8.99999961E-03   1.71563458E-10
   9.49999969E-03   1.45467180E-10
   9.99999978E-03   9.98005220E-11
   1.04999999E-02   3.44780419E-11
   1.09999999E-02  -4.90468013E-11
   1.15000000E-02  -1.47714091E-10
   1.20000001E-02  -2.56907828E-10
   1.25000002E-02  -3.70628861E-10
   1.30000003E-02  -4.81786389E-10
   1.35000004E-02  -5.82594251E-10
   1.40000004E-02  -6.65050126E-10
   1.44999996E-02  -7.21467996E-10
   1.49999997E-02  -7.45029594E-10
   1.54999997E-02  -7.30315419E-10
   1.60000008E-02  -6.73777867E-10
   1.64999999E-02  -5.74119308E-10
   1.70000009E-02  -4.32542974E-10
   1.75000001E-02  -2.52853682E-10
   1.79999992E-02  -4.13916540E-11
   1.85000002E-02   1.93202551E-10
   1.89999994E-02   4.40386894E-10
   1.95000004E-02   6.88259560E-10
   1.99999996E-02   9.24215482E-10
   2.05000006E-02   1.13567866E-09
   2.09999997E-02   1.31086564E-09
   2.15000007E-02   1.43953138E-09
   2.19999999E-02   1.51364798E-09
   2.25000009E-02   1.52797042E-09
   2.30000000E-02   1.48044788E-09
   2.34999992E-02   1.37245015E-09
   2.40000002E-02   1.20878685E-09
   2.44999994E-02   9.97514737E-10
   2.50000004E-02   7.49536211E-10
   2.54999995E-02   4.78012074E-10
   2.60000005E-02   1.97619351E-10
   2.64999997E-02  -7.63016178E-11
   2.70000007E-02  -3.28658517E-10
   2.74999999E-02  -5.45520462E-10
   2.80000009E-02  -7.14974746E-10
   2.85000000E-02  -8.27871771E-10
   2.89999992E-02  -8.78407125E-10
   2.95000002E-02  -8.64502525E-10
   2.99999993E-02  -7.87955812E-10
   3.05000003E-02  -6.54348131E-10
   3.09999995E-02  -4.72709427E-10
   3.15000005E-02  -2.54959637E-10
   3.20000015E-02  -1.51597363E-11
   3.24999988E-02   2.31384301E-10
   3.29999998E-02   4.69109085E-10
   3.35000008E-02   6.83207990E-10
   3.40000018E-02   8.60612470E-10
   3.44999991E-02   9.90870830E-10
   3.50000001E-02   1.06687403E-09
   3.55000012E-02   1.08537335E-09
   3.59999985E-02   1.04725806E-09
   3.64999995E-02   9.57573021E-10
   3.70000005E-02   8.25268687E-10
   3.75000015E-02   6.62700450E-10
   3.79999988E-02   4.84899787E-10
   3.84999998E-02   3.08672893E-10
   3.90000008E-02   1.51567744E-10
   3.95000018E-02   3.07868869E-11
   3.99999991E-02  -3.78934176E-11
   4.05000001E-02  -4.11290967E-11
   4.10000011E-02   3.11327908E-11
   4.14999984E-02   1.84987692E-10
   4.19999994E-02   4.22151564E-10
   4.25000004E-02   7.39805495E-10
   4.30000015E-02   1.13072984E-09
   4.34999987E-02   1.58370472E-09
   4.39999998E-02   2.08417528E-09
   4.45000008E-02   2.61512256E-09
   4.50000018E-02   3.15809912E-09
   4.54999991E-02   3.69436703E-09
   4.60000001E-02   4.20606394E-09
   4.65000011E-02   4.67732342E-09
   4.69999984E-02   5.09529263E-09
   4.74999994E-02   5.45096990E-09
   4.80000004E-02   5.73982595E-09
   4.85000014E-02   5.96215832E-09
   4.89999987E-02   6.12315976E-09
   4.94999997E-02   6.23271434E-09
   5.00000007E-02   6.30489971E-09
   5.05000018E-02   6.35725517E-09
   5.09999990E-02   6.40986020E-09
   5.15000001E-02   6.48425047E-09
   5.20000011E-02   6.60227739E-09
   5.24999984E-02   6.78494594E-09
   5.29999994E-02   7.05131953E-09
   5.35000004E-02   7.41755057E-09
   5.40000014E-02   7.89609089E-09
   5.44999987E-02   8.49513082E-09
   5.49999997E-02   9.21830701E-09
   5.55000007E-02   1.00646549E-08
   5.60000017E-02   1.10288561E-08
   5.64999990E-02   1.21017285E-08
   5.70000000E-02   1.32709470E-08
   5.75000010E-02   1.45219321E-08
   5.79999983E-02   1.58388431E-08
   5.84999993E-02   1.72056627E-08
   5.90000004E-02   1.86072544E-08
   5.95000014E-02   2.00303596E-08
   5.99999987E-02   2.14644835E-08
   6.04999997E-02   2.29026185E-08
   6.10000007E-02   2.43417517E-08
   6.15000017E-02   2.57831587E-08
   6.19999990E-02   2.72324456E-08
   6.25000000E-02   2.86994304E-08
   6.30000010E-02   3.01977110E-08
   6.35000020E-02   3.17441646E-08
   6.40000030E-02   3.33582229E-08
   6.44999966E-02   3.50611522E-08
   6.49999976E-02   3.68751643E-08
   6.54999986E-02   3.88226731E-08
   6.59999996E-02   4.09255243E-08
   6.65000007E-02   4.32043450E-08
   6.70000017E-02   4.56780285E-08
   6.75000027E-02   4.83633933E-08
   6.80000037E-02   5.12749416E-08
   6.84999973E-02   5.44248593E-08
   6.89999983E-02   5.78231614E-08
   6.94999993E-02   6.14779267E-08
   7.00000003E-02   6.53957528E-08
   7.05000013E-02   6.95821711E-08
   7.10000023E-02   7.40422337E-08
   7.15000033E-02   7.87809924E-08
   7.19999969E-02   8.38040961E-08
   7.24999979E-02   8.91182594E-08
   7.29999989E-02   9.47316110E-08
   7.34999999E-02   1.00654169E-07
   7.40000010E-02   1.06898021E-07
   7.45000020E-02   1.13477419E-07
   7.50000030E-02   1.20408856E-07
   7.54999965E-02   1.27711075E-07
   7.59999976E-02   1.35405031E-07
   7.64999986E-02   1.43513645E-07
   7.69999996E-02   1.52061773E-07
   7.75000006E-02   1.61075960E-07
   7.80000016E-02   1.70584258E-07
   7.85000026E-02   1.80616325E-07
   7.90000036E-02   1.91203043E-07
   7.94999972E-02   2.02376881E-07
   7.99999982E-02   2.14171536E-07
   8.04999992E-02   2.26622291E-07
   8.10000002E-02   2.39765939E-07
   8.15000013E-02   2.53640906E-07
   8.20000023E-02   2.68287607E-07
   8.25000033E-02   2.83748477E-07
   8.29999968E-02   3.00067825E-07
   8.34999979E-02   3.17292290E-07
   8.39999989E-02   3.35471043E-07
   8.44999999E-02   3.54655384E-07
   8.50000009E-02   3.74899230E-07
   8.55000019E-02   3.96258741E-07
   8.60000029E-02   4.18792695E-07
   8.64999965E-02   4.42562168E-07
   8.69999975E-02   4.67630571E-07
   8.74999985E-02   4.94064011E-07
   8.79999995E-02   5.21930986E-07
   8.85000005E-02   5.51302549E-07
   8.90000015E-02   5.82252710E-07
   8.95000026E-02   6.14858436E-07
   9.00000036E-02   6.49199876E-07
   9.04999971E-02   6.85361044E-07
   9.09999982E-02   7.23429764E-07
   9.14999992E-02   7.63498292E-07
   9.20000002E-02   8.05663717E-07
   9.25000012E-02   8.50028073E-07
   9.30000022E-02   8.96699532E-07
   9.35000032E-02   9.45791385E-07
   9.39999968E-02   9.97423399E-07
   9.44999978E-02   1.05172205E-06
   9.49999988E-02   1.10881956E-06
   9.54999998E-02   1.16885542E-06
   9.60000008E-02   1.23197583E-06
   9.65000018E-02   1.29833290E-06
   9.70000029E-02   1.36808626E-06
   9.74999964E-02   1.44140188E-06
   9.79999974E-02   1.51845200E-06
   9.84999985E-02   1.59941624E-06
   9.89999995E-02   1.68448025E-06
   9.95000005E-02   1.77383765E-06
  0.100000001       1.86768898E-06
  0.100500003       1.96624319E-06
  0.101000004       2.06971686E-06
  0.101499997       2.17833576E-06
  0.101999998       2.29233638E-06
  0.102499999       2.41196449E-06
  0.103000000       2.53747839E-06
  0.103500001       2.66914799E-06
  0.104000002       2.80725635E-06
  0.104500003       2.95210043E-06
  0.104999997       3.10399150E-06
  0.105499998       3.26325630E-06
  0.105999999       3.43023544E-06
  0.106500000       3.60528747E-06
  0.107000001       3.78878485E-06
  0.107500002       3.98111752E-06
  0.108000003       4.18268974E-06
  0.108499996       4.39392352E-06
  0.108999997       4.61525633E-06
  0.109499998       4.84714155E-06
  0.109999999       5.09004849E-06
  0.110500000       5.34446099E-06
  0.111000001       5.61088382E-06
  0.111500002       5.88983539E-06
  0.112000003       6.18185277E-06
  0.112499997       6.48749483E-06
  0.112999998       6.80733820E-06
  0.113499999       7.14198131E-06
  0.114000000       7.49204628E-06
  0.114500001       7.85818065E-06
  0.115000002       8.24105700E-06
  0.115500003       8.64138110E-06
  0.115999997       9.05988236E-06
  0.116499998       9.49732930E-06
  0.116999999       9.95451774E-06
  0.117500000       1.04322817E-05
  0.118000001       1.09314897E-05
  0.118500002       1.14530476E-05
  0.119000003       1.19978968E-05
  0.119499996       1.25670222E-05
  0.119999997       1.31614397E-05
  0.120499998       1.37822071E-05
  0.120999999       1.44304213E-05
  0.121500000       1.51072163E-05
  0.122000001       1.58137645E-05
  0.122500002       1.65512774E-05
  0.123000003       1.73210083E-05
  0.123499997       1.81242485E-05
  0.123999998       1.89623261E-05
  0.124499999       1.98366197E-05
  0.125000000       2.07485518E-05
  0.125499994       2.16995868E-05
  0.126000002       2.26912362E-05
  0.126499996       2.37250679E-05
  0.127000004       2.48027009E-05
  0.127499998       2.59258177E-05
  0.128000006       2.70961518E-05
  0.128500000       2.83155059E-05
  0.128999993       2.95857444E-05
  0.129500002       3.09088064E-05
  0.129999995       3.22867018E-05
  0.130500004       3.37215097E-05
  0.130999997       3.52153911E-05
  0.131500006       3.67705761E-05
  0.131999999       3.83893748E-05
  0.132499993       4.00741774E-05
  0.133000001       4.18274722E-05
  0.133499995       4.36517948E-05
  0.134000003       4.55497866E-05
  0.134499997       4.75241613E-05
  0.135000005       4.95777276E-05
  0.135499999       5.17133631E-05
  0.136000007       5.39340363E-05
  0.136500001       5.62428031E-05
  0.136999995       5.86428105E-05
  0.137500003       6.11372961E-05
  0.137999997       6.37295816E-05
  0.138500005       6.64231047E-05
  0.138999999       6.92213798E-05
  0.139500007       7.21280376E-05
  0.140000001       7.51468324E-05
  0.140499994       7.82815914E-05
  0.141000003       8.15363019E-05
  0.141499996       8.49150601E-05
  0.142000005       8.84220717E-05
  0.142499998       9.20616731E-05
  0.143000007       9.58383462E-05
  0.143500000       9.97566822E-05
  0.143999994       1.03821454E-04
  0.144500002       1.08037530E-04
  0.144999996       1.12409936E-04
  0.145500004       1.16943855E-04
  0.145999998       1.21644596E-04
  0.146500006       1.26517625E-04
  0.147000000       1.31568566E-04
  0.147499993       1.36803166E-04
  0.148000002       1.42227320E-04
  0.148499995       1.47847139E-04
  0.149000004       1.53668821E-04
  0.149499997       1.59698728E-04
  0.150000006       1.65943391E-04
  0.150500000       1.72409491E-04
  0.150999993       1.79103910E-04
  0.151500002       1.86033649E-04
  0.151999995       1.93205924E-04
  0.152500004       2.00628114E-04
  0.152999997       2.08307683E-04
  0.153500006       2.16252432E-04
  0.153999999       2.24470234E-04
  0.154499993       2.32969207E-04
  0.155000001       2.41757662E-04
  0.155499995       2.50843994E-04
  0.156000003       2.60236993E-04
  0.156499997       2.69945507E-04
  0.157000005       2.79978645E-04
  0.157499999       2.90345692E-04
  0.158000007       3.01056163E-04
  0.158500001       3.12119751E-04
  0.158999994       3.23546410E-04
  0.159500003       3.35346325E-04
  0.159999996       3.47529771E-04
  0.160500005       3.60107311E-04
  0.160999998       3.73089861E-04
  0.161500007       3.86488304E-04
  0.162000000       4.00313904E-04
  0.162499994       4.14578128E-04
  0.163000003       4.29292500E-04
  0.163499996       4.44468984E-04
  0.164000005       4.60119569E-04
  0.164499998       4.76256653E-04
  0.165000007       4.92892577E-04
  0.165500000       5.10040147E-04
  0.165999994       5.27712342E-04
  0.166500002       5.45922259E-04
  0.166999996       5.64683345E-04
  0.167500004       5.84009103E-04
  0.167999998       6.03913446E-04
  0.168500006       6.24410284E-04
  0.169000000       6.45513879E-04
  0.169499993       6.67238783E-04
  0.170000002       6.89599663E-04
  0.170499995       7.12611305E-04
  0.171000004       7.36289017E-04
  0.171499997       7.60647934E-04
  0.172000006       7.85703713E-04
  0.172499999       8.11472011E-04
  0.172999993       8.37968604E-04
  0.173500001       8.65209789E-04
  0.173999995       8.93211807E-04
  0.174500003       9.21991013E-04
  0.174999997       9.51564289E-04
  0.175500005       9.81948222E-04
  0.175999999       1.01315987E-03
  0.176499993       1.04521634E-03
  0.177000001       1.07813487E-03
  0.177499995       1.11193291E-03
  0.178000003       1.14662794E-03
  0.178499997       1.18223764E-03
  0.179000005       1.21877983E-03
  0.179499999       1.25627231E-03
  0.180000007       1.29473314E-03
  0.180500001       1.33418036E-03
  0.180999994       1.37463212E-03
  0.181500003       1.41610659E-03
  0.181999996       1.45862228E-03
  0.182500005       1.50219759E-03
  0.182999998       1.54685054E-03
  0.183500007       1.59259990E-03
  0.184000000       1.63946382E-03
  0.184499994       1.68746093E-03
  0.185000002       1.73660973E-03
  0.185499996       1.78692816E-03
  0.186000004       1.83843507E-03
  0.186499998       1.89114816E-03
  0.187000006       1.94508582E-03
  0.187500000       2.00026622E-03
  0.187999994       2.05670740E-03
  0.188500002       2.11442681E-03
  0.188999996       2.17344239E-03
  0.189500004       2.23377114E-03
  0.189999998       2.29543098E-03
  0.190500006       2.35843821E-03
  0.191000000       2.42281030E-03
  0.191499993       2.48856330E-03
  0.192000002       2.55571329E-03
  0.192499995       2.62427656E-03
  0.193000004       2.69426825E-03
  0.193499997       2.76570418E-03
  0.194000006       2.83859833E-03
  0.194499999       2.91296514E-03
  0.194999993       2.98881903E-03
  0.195500001       3.06617375E-03
  0.195999995       3.14504164E-03
  0.196500003       3.22543597E-03
  0.196999997       3.30736768E-03
  0.197500005       3.39084887E-03
  0.197999999       3.47589049E-03
  0.198500007       3.56250233E-03
  0.199000001       3.65069415E-03
  0.199499995       3.74047481E-03
  0.200000003       3.83185199E-03
  0.200499997       3.92483361E-03
  0.201000005       4.01942525E-03
  0.201499999       4.11563367E-03
  0.202000007       4.21346258E-03
  0.202500001       4.31291619E-03
  0.202999994       4.41399775E-03
  0.203500003       4.51670960E-03
  0.203999996       4.62105125E-03
  0.204500005       4.72702319E-03
  0.204999998       4.83462401E-03
  0.205500007       4.94385092E-03
  0.206000000       5.05470019E-03
  0.206499994       5.16716717E-03
  0.207000002       5.28124534E-03
  0.207499996       5.39692771E-03
  0.208000004       5.51420543E-03
  0.208499998       5.63306781E-03
  0.209000006       5.75350365E-03
  0.209500000       5.87550038E-03
  0.209999993       5.99904452E-03
  0.210500002       6.12411834E-03
  0.210999995       6.25070604E-03
  0.211500004       6.37878897E-03
  0.211999997       6.50834572E-03
  0.212500006       6.63935393E-03
  0.213000000       6.77179126E-03
  0.213499993       6.90563070E-03
  0.214000002       7.04084616E-03
  0.214499995       7.17740785E-03
  0.215000004       7.31528504E-03
  0.215499997       7.45444465E-03
  0.216000006       7.59485224E-03
  0.216499999       7.73647055E-03
  0.216999993       7.87926000E-03
  0.217500001       8.02318193E-03
  0.217999995       8.16819072E-03
  0.218500003       8.31424259E-03
  0.218999997       8.46129004E-03
  0.219500005       8.60928185E-03
  0.219999999       8.75816867E-03
  0.220500007       8.90789554E-03
  0.221000001       9.05840565E-03
  0.221499994       9.20964126E-03
  0.222000003       9.36154090E-03
  0.222499996       9.51404311E-03
  0.223000005       9.66708176E-03
  0.223499998       9.82058980E-03
  0.224000007       9.97449737E-03
  0.224500000       1.01287318E-02
  0.224999994       1.02832206E-02
  0.225500003       1.04378844E-02
  0.225999996       1.05926441E-02
  0.226500005       1.07474197E-02
  0.226999998       1.09021254E-02
  0.227500007       1.10566756E-02
  0.228000000       1.12109799E-02
  0.228499994       1.13649471E-02
  0.229000002       1.15184831E-02
  0.229499996       1.16714910E-02
  0.230000004       1.18238721E-02
  0.230499998       1.19755231E-02
  0.231000006       1.21263415E-02
  0.231500000       1.22762201E-02
  0.231999993       1.24250501E-02
  0.232500002       1.25727225E-02
  0.232999995       1.27191208E-02
  0.233500004       1.28641305E-02
  0.233999997       1.30076334E-02
  0.234500006       1.31495092E-02
  0.234999999       1.32896341E-02
  0.235499993       1.34278834E-02
  0.236000001       1.35641312E-02
  0.236499995       1.36982473E-02
  0.237000003       1.38301039E-02
  0.237499997       1.39595643E-02
  0.238000005       1.40864924E-02
  0.238499999       1.42107541E-02
  0.238999993       1.43322088E-02
  0.239500001       1.44507177E-02
  0.239999995       1.45661365E-02
  0.240500003       1.46783218E-02
  0.240999997       1.47871273E-02
  0.241500005       1.48924077E-02
  0.241999999       1.49940141E-02
  0.242500007       1.50917945E-02
  0.243000001       1.51856011E-02
  0.243499994       1.52752800E-02
  0.244000003       1.53606785E-02
  0.244499996       1.54416403E-02
  0.245000005       1.55180125E-02
  0.245499998       1.55896358E-02
  0.246000007       1.56563576E-02
  0.246500000       1.57180149E-02
  0.246999994       1.57744549E-02
  0.247500002       1.58255193E-02
  0.247999996       1.58710480E-02
  0.248500004       1.59108825E-02
  0.248999998       1.59448665E-02
  0.249500006       1.59728378E-02
  0.250000000       1.59946419E-02
  0.250499994       1.60101186E-02
  0.250999987       1.60191152E-02
  0.251500010       1.60214696E-02
  0.252000004       1.60170291E-02
  0.252499998       1.60056390E-02
  0.252999991       1.59871466E-02
  0.253500015       1.59613993E-02
  0.254000008       1.59282498E-02
  0.254500002       1.58875473E-02
  0.254999995       1.58391465E-02
  0.255499989       1.57829020E-02
  0.256000012       1.57186706E-02
  0.256500006       1.56463161E-02
  0.256999999       1.55656980E-02
  0.257499993       1.54766841E-02
  0.257999986       1.53791402E-02
  0.258500010       1.52729405E-02
  0.259000003       1.51579557E-02
  0.259499997       1.50340665E-02
  0.259999990       1.49011528E-02
  0.260500014       1.47590972E-02
  0.261000007       1.46077899E-02
  0.261500001       1.44471219E-02
  0.261999995       1.42769897E-02
  0.262499988       1.40972938E-02
  0.263000011       1.39079392E-02
  0.263500005       1.37088355E-02
  0.263999999       1.34998979E-02
  0.264499992       1.32810455E-02
  0.264999986       1.30522037E-02
  0.265500009       1.28133018E-02
  0.266000003       1.25642791E-02
  0.266499996       1.23050744E-02
  0.266999990       1.20356381E-02
  0.267500013       1.17559247E-02
  0.268000007       1.14658950E-02
  0.268500000       1.11655146E-02
  0.268999994       1.08547583E-02
  0.269499987       1.05336104E-02
  0.270000011       1.02020549E-02
  0.270500004       9.86008998E-03
  0.270999998       9.50771663E-03
  0.271499991       9.14494507E-03
  0.272000015       8.77179205E-03
  0.272500008       8.38828180E-03
  0.273000002       7.99444783E-03
  0.273499995       7.59032834E-03
  0.273999989       7.17597222E-03
  0.274500012       6.75143395E-03
  0.275000006       6.31677732E-03
  0.275500000       5.87207405E-03
  0.275999993       5.41740283E-03
  0.276499987       4.95285261E-03
  0.277000010       4.47851885E-03
  0.277500004       3.99450678E-03
  0.277999997       3.50092957E-03
  0.278499991       2.99790944E-03
  0.279000014       2.48557772E-03
  0.279500008       1.96407386E-03
  0.280000001       1.43354724E-03
  0.280499995       8.94155062E-04
  0.280999988       3.46065121E-04
  0.281500012      -2.10547398E-04
  0.282000005      -7.75497116E-04
  0.282499999      -1.34859048E-03
  0.282999992      -1.92962412E-03
  0.283499986      -2.51838588E-03
  0.284000009      -3.11465608E-03
  0.284500003      -3.71820503E-03
  0.284999996      -4.32879431E-03
  0.285499990      -4.94617876E-03
  0.286000013      -5.57010202E-03
  0.286500007      -6.20030053E-03
  0.287000000      -6.83650421E-03
  0.287499994      -7.47843366E-03
  0.287999988      -8.12580064E-03
  0.288500011      -8.77831038E-03
  0.289000005      -9.43565741E-03
  0.289499998      -1.00975335E-02
  0.289999992      -1.07636191E-02
  0.290499985      -1.14335893E-02
  0.291000009      -1.21071106E-02
  0.291500002      -1.27838412E-02
  0.291999996      -1.34634366E-02
  0.292499989      -1.41455382E-02
  0.293000013      -1.48297856E-02
  0.293500006      -1.55158117E-02
  0.294000000      -1.62032451E-02
  0.294499993      -1.68916993E-02
  0.294999987      -1.75807942E-02
  0.295500010      -1.82701368E-02
  0.296000004      -1.89593285E-02
  0.296499997      -1.96479708E-02
  0.296999991      -2.03356557E-02
  0.297500014      -2.10219733E-02
  0.298000008      -2.17065103E-02
  0.298500001      -2.23888475E-02
  0.298999995      -2.30685659E-02
  0.299499989      -2.37452388E-02
  0.300000012      -2.44184416E-02
  0.300500005      -2.50877403E-02
  0.300999999      -2.57527102E-02
  0.301499993      -2.64129173E-02
  0.301999986      -2.70679258E-02
  0.302500010      -2.77172998E-02
  0.303000003      -2.83606052E-02
  0.303499997      -2.89974026E-02
  0.303999990      -2.96272598E-02
  0.304500014      -3.02497428E-02
  0.305000007      -3.08644120E-02
  0.305500001      -3.14708352E-02
  0.305999994      -3.20685841E-02
  0.306499988      -3.26572135E-02
  0.307000011      -3.32363062E-02
  0.307500005      -3.38054337E-02
  0.307999998      -3.43641751E-02
  0.308499992      -3.49121094E-02
  0.308999985      -3.54488157E-02
  0.309500009      -3.59738879E-02
  0.310000002      -3.64869200E-02
  0.310499996      -3.69875021E-02
  0.310999990      -3.74752395E-02
  0.311500013      -3.79497483E-02
  0.312000006      -3.84106413E-02
  0.312500000      -3.88575383E-02
  0.312999994      -3.92900705E-02
  0.313499987      -3.97078767E-02
  0.314000010      -4.01105955E-02
  0.314500004      -4.04978916E-02
  0.314999998      -4.08694111E-02
  0.315499991      -4.12248299E-02
  0.316000015      -4.15638275E-02
  0.316500008      -4.18860912E-02
  0.317000002      -4.21913192E-02
  0.317499995      -4.24792133E-02
  0.317999989      -4.27494980E-02
  0.318500012      -4.30018939E-02
  0.319000006      -4.32361439E-02
  0.319499999      -4.34520021E-02
  0.319999993      -4.36492227E-02
  0.320499986      -4.38275859E-02
  0.321000010      -4.39868756E-02
  0.321500003      -4.41268906E-02
  0.321999997      -4.42474410E-02
  0.322499990      -4.43483554E-02
  0.323000014      -4.44294699E-02
  0.323500007      -4.44906354E-02
  0.324000001      -4.45317216E-02
  0.324499995      -4.45526056E-02
  0.324999988      -4.45531867E-02
  0.325500011      -4.45333645E-02
  0.326000005      -4.44930717E-02
  0.326499999      -4.44322452E-02
  0.326999992      -4.43508364E-02
  0.327499986      -4.42488119E-02
  0.328000009      -4.41261530E-02
  0.328500003      -4.39828560E-02
  0.328999996      -4.38189320E-02
  0.329499990      -4.36344109E-02
  0.330000013      -4.34293337E-02
  0.330500007      -4.32037562E-02
  0.331000000      -4.29577418E-02
  0.331499994      -4.26913872E-02
  0.331999987      -4.24047895E-02
  0.332500011      -4.20980603E-02
  0.333000004      -4.17713374E-02
  0.333499998      -4.14247587E-02
  0.333999991      -4.10584882E-02
  0.334500015      -4.06727009E-02
  0.335000008      -4.02675904E-02
  0.335500002      -3.98433581E-02
  0.335999995      -3.94002274E-02
  0.336499989      -3.89384292E-02
  0.337000012      -3.84582207E-02
  0.337500006      -3.79598625E-02
  0.338000000      -3.74436341E-02
  0.338499993      -3.69098261E-02
  0.338999987      -3.63587439E-02
  0.339500010      -3.57907042E-02
  0.340000004      -3.52060422E-02
  0.340499997      -3.46051045E-02
  0.340999991      -3.39882448E-02
  0.341500014      -3.33558321E-02
  0.342000008      -3.27082463E-02
  0.342500001      -3.20458785E-02
  0.342999995      -3.13691311E-02
  0.343499988      -3.06784194E-02
  0.344000012      -2.99741607E-02
  0.344500005      -2.92567909E-02
  0.344999999      -2.85267513E-02
  0.345499992      -2.77844928E-02
  0.345999986      -2.70304754E-02
  0.346500009      -2.62651667E-02
  0.347000003      -2.54890453E-02
  0.347499996      -2.47025955E-02
  0.347999990      -2.39063073E-02
  0.348500013      -2.31006835E-02
  0.349000007      -2.22862288E-02
  0.349500000      -2.14634594E-02
  0.349999994      -2.06328910E-02
  0.350499988      -1.97950453E-02
  0.351000011      -1.89504586E-02
  0.351500005      -1.80996582E-02
  0.351999998      -1.72431860E-02
  0.352499992      -1.63815804E-02
  0.352999985      -1.55153899E-02
  0.353500009      -1.46451583E-02
  0.354000002      -1.37714343E-02
  0.354499996      -1.28947673E-02
  0.354999989      -1.20157078E-02
  0.355500013      -1.11348070E-02
  0.356000006      -1.02526154E-02
  0.356500000      -9.36968252E-03
  0.356999993      -8.48655589E-03
  0.357499987      -7.60378456E-03
  0.358000010      -6.72191055E-03
  0.358500004      -5.84147684E-03
  0.358999997      -4.96302219E-03
  0.359499991      -4.08708304E-03
  0.360000014      -3.21419025E-03
  0.360500008      -2.34487234E-03
  0.361000001      -1.47965318E-03
  0.361499995      -6.19049708E-04
  0.361999989       2.36423599E-04
  0.362500012       1.08626054E-03
  0.363000005       1.92995986E-03
  0.363499999       2.76702642E-03
  0.363999993       3.59697337E-03
  0.364499986       4.41932119E-03
  0.365000010       5.23359794E-03
  0.365500003       6.03933865E-03
  0.365999997       6.83608744E-03
  0.366499990       7.62339821E-03
  0.367000014       8.40083323E-03
  0.367500007       9.16796457E-03
  0.368000001       9.92437545E-03
  0.368499994       1.06696580E-02
  0.368999988       1.14034163E-02
  0.369500011       1.21252630E-02
  0.370000005       1.28348237E-02
  0.370499998       1.35317352E-02
  0.370999992       1.42156463E-02
  0.371499985       1.48862181E-02
  0.372000009       1.55431256E-02
  0.372500002       1.61860511E-02
  0.372999996       1.68146919E-02
  0.373499990       1.74287613E-02
  0.374000013       1.80279780E-02
  0.374500006       1.86120830E-02
  0.375000000       1.91808268E-02
  0.375499994       1.97339691E-02
  0.375999987       2.02712882E-02
  0.376500010       2.07925737E-02
  0.377000004       2.12976318E-02
  0.377499998       2.17862781E-02
  0.377999991       2.22583432E-02
  0.378500015       2.27136742E-02
  0.379000008       2.31521297E-02
  0.379500002       2.35735811E-02
  0.379999995       2.39779130E-02
  0.380499989       2.43650265E-02
  0.381000012       2.47348342E-02
  0.381500006       2.50872634E-02
  0.381999999       2.54222546E-02
  0.382499993       2.57397629E-02
  0.382999986       2.60397475E-02
  0.383500010       2.63221953E-02
  0.384000003       2.65870895E-02
  0.384499997       2.68344432E-02
  0.384999990       2.70642731E-02
  0.385500014       2.72766054E-02
  0.386000007       2.74714902E-02
  0.386500001       2.76489854E-02
  0.386999995       2.78091524E-02
  0.387499988       2.79520806E-02
  0.388000011       2.80778576E-02
  0.388500005       2.81865951E-02
  0.388999999       2.82784086E-02
  0.389499992       2.83534322E-02
  0.389999986       2.84118019E-02
  0.390500009       2.84536723E-02
  0.391000003       2.84792092E-02
  0.391499996       2.84885839E-02
  0.391999990       2.84819845E-02
  0.392500013       2.84595974E-02
  0.393000007       2.84216367E-02
  0.393500000       2.83683091E-02
  0.393999994       2.82998346E-02
  0.394499987       2.82164440E-02
  0.395000011       2.81183738E-02
  0.395500004       2.80058719E-02
  0.395999998       2.78791934E-02
  0.396499991       2.77385917E-02
  0.397000015       2.75843404E-02
  0.397500008       2.74167117E-02
  0.398000002       2.72359811E-02
  0.398499995       2.70424373E-02
  0.398999989       2.68363748E-02
  0.399500012       2.66180877E-02
  0.400000006       2.63878796E-02
  0.400500000       2.61460599E-02
  0.400999993       2.58929431E-02
  0.401499987       2.56288443E-02
  0.402000010       2.53540911E-02
  0.402500004       2.50690058E-02
  0.402999997       2.47739218E-02
  0.403499991       2.44691726E-02
  0.404000014       2.41550952E-02
  0.404500008       2.38320269E-02
  0.405000001       2.35003103E-02
  0.405499995       2.31602881E-02
  0.405999988       2.28123069E-02
  0.406500012       2.24567093E-02
  0.407000005       2.20938381E-02
  0.407499999       2.17240453E-02
  0.407999992       2.13476699E-02
  0.408499986       2.09650602E-02
  0.409000009       2.05765571E-02
  0.409500003       2.01825052E-02
  0.409999996       1.97832454E-02
  0.410499990       1.93791203E-02
  0.411000013       1.89704653E-02
  0.411500007       1.85576212E-02
  0.412000000       1.81409232E-02
  0.412499994       1.77207049E-02
  0.412999988       1.72972996E-02
  0.413500011       1.68710388E-02
  0.414000005       1.64422523E-02
  0.414499998       1.60112642E-02
  0.414999992       1.55783966E-02
  0.415499985       1.51439728E-02
  0.416000009       1.47083085E-02
  0.416500002       1.42717184E-02
  0.416999996       1.38345109E-02
  0.417499989       1.33969942E-02
  0.418000013       1.29594682E-02
  0.418500006       1.25222299E-02
  0.419000000       1.20855737E-02
  0.419499993       1.16497846E-02
  0.419999987       1.12151438E-02
  0.420500010       1.07819289E-02
  0.421000004       1.03504108E-02
  0.421499997       9.92085226E-03
  0.421999991       9.49351490E-03
  0.422500014       9.06865206E-03
  0.423000008       8.64651054E-03
  0.423500001       8.22733622E-03
  0.423999995       7.81136518E-03
  0.424499989       7.39882933E-03
  0.425000012       6.98995637E-03
  0.425500005       6.58496795E-03
  0.425999999       6.18408155E-03
  0.426499993       5.78750763E-03
  0.426999986       5.39545249E-03
  0.427500010       5.00811730E-03
  0.428000003       4.62569715E-03