   0.00000000       0.00000000    
   5.00000024E-04   0.00000000    
   1.00000005E-03   0.00000000    
   1.50000001E-03   0.00000000    
   2.00000009E-03  -6.20858907E-21
   2.49999994E-03  -5.34550187E-20
   3.00000003E-03  -2.52778434E-19
   3.50000011E-03  -8.66010332E-19
   4.00000019E-03  -2.39604114E-18
   4.49999981E-03  -5.66423298E-18
   4.99999989E-03  -1.18286000E-17
   5.49999997E-03  -2.22826228E-17
   6.00000005E-03  -3.83701822E-17
   6.50000013E-03  -6.08620966E-17
   7.00000022E-03  -8.91677275E-17
   7.49999983E-03  -1.20302515E-16
   8.00000038E-03  -1.47697903E-16
   8.50000046E-03  -1.60017467E-16
   8.99999961E-03  -1.40225246E-16
   9.49999969E-03  -6.52249648E-17
   9.99999978E-03   9.35608241E-17
   1.04999999E-02   3.68292599E-16
   1.09999999E-02   7.91156778E-16
   1.15000000E-02   1.38892048E-15
   1.20000001E-02   2.17554335E-15
   1.25000002E-02   3.14304090E-15
   1.30000003E-02   4.25110293E-15
   1.35000004E-02   5.41631745E-15
   1.40000004E-02   6.50220437E-15
   1.44999996E-02   7.31160704E-15
   1.49999997E-02   7.58322340E-15
   1.54999997E-02   6.99420346E-15
   1.60000008E-02   5.17071220E-15
   1.64999999E-02   1.70807434E-15
   1.70000009E-02  -3.79834985E-15
   1.75000001E-02  -1.17111614E-14
   1.79999992E-02  -2.22984015E-14
   1.85000002E-02  -3.56723047E-14
   1.89999994E-02  -5.17225084E-14
   1.95000004E-02  -7.00482017E-14
   1.99999996E-02  -8.98952543E-14
   2.05000006E-02  -1.10105169E-13
   2.09999997E-02  -1.29083932E-13
   2.15000007E-02  -1.44798751E-13
   2.19999999E-02  -1.54810599E-13
   2.25000009E-02  -1.56349448E-13
   2.30000000E-02  -1.46437021E-13
   2.34999992E-02  -1.22059440E-13
   2.40000002E-02  -8.03887257E-14
   2.44999994E-02  -1.90477076E-14
   2.50000004E-02   6.35911747E-14
   2.54999995E-02   1.68087766E-13
   2.60000005E-02   2.93615989E-13
   2.64999997E-02   4.37668619E-13
   2.70000007E-02   5.95811378E-13
   2.74999999E-02   7.61514820E-13
   2.80000009E-02   9.26092102E-13
   2.85000000E-02   1.07876945E-12
   2.89999992E-02   1.20691196E-12
   2.95000002E-02   1.29642022E-12
   2.99999993E-02   1.33230623E-12
   3.05000003E-02   1.29944449E-12
   3.09999995E-02   1.18348311E-12
   3.15000005E-02   9.71886959E-13
   3.20000015E-02   6.55068339E-13
   3.24999988E-02   2.27552244E-13
   3.29999998E-02  -3.10893428E-13
   3.35000008E-02  -9.54236907E-13
   3.40000018E-02  -1.68935341E-12
   3.44999991E-02  -2.49547019E-12
   3.50000001E-02  -3.34396356E-12
   3.55000012E-02  -4.19857985E-12
   3.59999985E-02  -5.01613161E-12
   3.64999995E-02  -5.74770179E-12
   3.70000005E-02  -6.34036703E-12
   3.75000015E-02  -6.73941632E-12
   3.79999988E-02  -6.89100556E-12
   3.84999998E-02  -6.74517126E-12
   3.90000008E-02  -6.25907009E-12
   3.95000018E-02  -5.40030390E-12
   3.99999991E-02  -4.15015418E-12
   4.05000001E-02  -2.50652840E-12
   4.10000011E-02  -4.86426166E-13
   4.14999984E-02   1.87227295E-12
   4.19999994E-02   4.50988552E-12
   4.25000004E-02   7.34502129E-12
   4.30000015E-02   1.02758097E-11
   4.34999987E-02   1.31823380E-11
   4.39999998E-02   1.59303022E-11
   4.45000008E-02   1.83758182E-11
   4.50000018E-02   2.03712758E-11
   4.54999991E-02   2.17720182E-11
   4.60000001E-02   2.24436338E-11
   4.65000011E-02   2.22694935E-11
   4.69999984E-02   2.11582175E-11
   4.74999994E-02   1.90506447E-11
   4.80000004E-02   1.59259307E-11
   4.85000014E-02   1.18063623E-11
   4.89999987E-02   6.76053267E-12
   4.94999997E-02   9.04577194E-13
   5.00000007E-02  -5.59877578E-12
   5.05000018E-02  -1.25434663E-11
   5.09999990E-02  -1.96857131E-11
   5.15000001E-02  -2.67518906E-11
   5.20000011E-02  -3.34484489E-11
   5.24999984E-02  -3.94735460E-11
   5.29999994E-02  -4.45299700E-11
   5.35000004E-02  -4.83387740E-11
   5.40000014E-02  -5.06530373E-11
   5.44999987E-02  -5.12710673E-11
   5.49999997E-02  -5.00483856E-11
   5.55000007E-02  -4.69078110E-11
   5.60000017E-02  -4.18470328E-11
   5.64999990E-02  -3.49431838E-11
   5.70000000E-02  -2.63539902E-11
   5.75000010E-02  -1.63152668E-11
   5.79999983E-02  -5.13464922E-12
   5.84999993E-02   6.81826774E-12
   5.90000004E-02   1.91251529E-11
   5.95000014E-02   3.13350006E-11
   5.99999987E-02   4.29823885E-11
   6.04999997E-02   5.36071847E-11
   6.10000007E-02   6.27747437E-11
   6.15000017E-02   7.00956515E-11
   6.19999990E-02   7.52440957E-11
   6.25000000E-02   7.79738149E-11
   6.30000010E-02   7.81308490E-11
   6.35000020E-02   7.56622681E-11
   6.40000030E-02   7.06203984E-11
   6.44999966E-02   6.31622185E-11
   6.49999976E-02   5.35436730E-11
   6.54999986E-02   4.21092085E-11
   6.59999996E-02   2.92768657E-11
   6.65000007E-02   1.55195631E-11
   6.70000017E-02   1.34344228E-12
   6.75000027E-02  -1.27356563E-11
   6.80000037E-02  -2.62164561E-11
   6.84999973E-02  -3.86359694E-11
   6.89999983E-02  -4.95914247E-11
   6.94999993E-02  -5.87592405E-11
   7.00000003E-02  -6.59098956E-11
   7.05000013E-02  -7.09179451E-11
   7.10000023E-02  -7.37663333E-11
   7.15000033E-02  -7.45448911E-11
   7.19999969E-02  -7.34427241E-11
   7.24999979E-02  -7.07349804E-11
   7.29999989E-02  -6.67644690E-11
   7.34999999E-02  -6.19191018E-11
   7.40000010E-02  -5.66062995E-11
   7.45000020E-02  -5.12257597E-11
   7.50000030E-02  -4.61420971E-11
   7.54999965E-02  -4.16589541E-11
   7.59999976E-02  -3.79961722E-11
   7.64999986E-02  -3.52714385E-11
   7.69999996E-02  -3.34877022E-11
   7.75000006E-02  -3.25274079E-11
   7.80000016E-02  -3.21541509E-11
   7.85000026E-02  -3.20220898E-11
   7.90000036E-02  -3.16930059E-11
   7.94999972E-02  -3.06603944E-11
   7.99999982E-02  -2.83797100E-11
   8.04999992E-02  -2.43033146E-11
   8.10000002E-02  -1.79185434E-11
   8.15000013E-02  -8.78687748E-12
   8.20000023E-02   3.41784196E-12
   8.25000033E-02   1.88743257E-11
   8.29999968E-02   3.75840262E-11
   8.34999979E-02   5.93485053E-11
   8.39999989E-02   8.37557662E-11
   8.44999999E-02   1.10176777E-10
   8.50000009E-02   1.37773210E-10
   8.55000019E-02   1.65516545E-10
   8.60000029E-02   1.92218533E-10
   8.64999965E-02   2.16572302E-10
   8.69999975E-02   2.37202480E-10
   8.74999985E-02   2.52722815E-10
   8.79999995E-02   2.61798777E-10
   8.85000005E-02   2.63212618E-10
   8.90000015E-02   2.55927834E-10
   8.95000026E-02   2.39150061E-10
   9.00000036E-02   2.12381640E-10
   9.04999971E-02   1.75466336E-10
   9.09999982E-02   1.28622585E-10
   9.14999992E-02   7.24624111E-11
   9.20000002E-02   7.99491723E-12
   9.25000012E-02  -6.33866640E-11
   9.30000022E-02  -1.39934522E-10
   9.35000032E-02  -2.19591831E-10
   9.39999968E-02  -3.00052955E-10
   9.44999978E-02  -3.78836157E-10
   9.49999988E-02  -4.53366455E-10
   9.54999998E-02  -5.21064580E-10
   9.60000008E-02  -5.79439607E-10
   9.65000018E-02  -6.26179997E-10
   9.70000029E-02  -6.59240107E-10
   9.74999964E-02  -6.76917522E-10
   9.79999974E-02  -6.77918166E-10
   9.84999985E-02  -6.61405375E-10
   9.89999995E-02  -6.27031260E-10
   9.95000005E-02  -5.74947256E-10
  0.100000001      -5.05794295E-10
  0.100500003      -4.20671442E-10
  0.101000004      -3.21084048E-10
  0.101499997      -2.08874015E-10
  0.101999998      -8.61335794E-11
  0.102499999       4.48930094E-11
  0.103000000       1.81916454E-10
  0.103500001       3.22713106E-10
  0.104000002       4.65235211E-10
  0.104500003       6.07715267E-10
  0.104999997       7.48760220E-10
  0.105499998       8.87431906E-10
  0.105999999       1.02330822E-09
  0.106500000       1.15652443E-09
  0.107000001       1.28779076E-09
  0.107500002       1.41838707E-09
  0.108000003       1.55013258E-09
  0.108499996       1.68533310E-09
  0.108999997       1.82670790E-09
  0.109499998       1.97730010E-09
  0.109999999       2.14037166E-09
  0.110500000       2.31929209E-09
  0.111000001       2.51741983E-09
  0.111500002       2.73798917E-09
  0.112000003       2.98400016E-09
  0.112499997       3.25812333E-09
  0.112999998       3.56261887E-09
  0.113499999       3.89927468E-09
  0.114000000       4.26937108E-09
  0.114500001       4.67366457E-09
  0.115000002       5.11240383E-09
  0.115500003       5.58536595E-09
  0.115999997       6.09191853E-09
  0.116499998       6.63110322E-09
  0.116999999       7.20173876E-09
  0.117500000       7.80253639E-09
  0.118000001       8.43222203E-09
  0.118500002       9.08966857E-09
  0.119000003       9.77402692E-09
  0.119499996       1.04848414E-08
  0.119999997       1.12221690E-08
  0.120499998       1.19866712E-08
  0.120999999       1.27796982E-08
  0.121500000       1.36033442E-08
  0.122000001       1.44604817E-08
  0.122500002       1.53547823E-08
  0.123000003       1.62907003E-08
  0.123499997       1.72734431E-08
  0.123999998       1.83089277E-08
  0.124499999       1.94037231E-08
  0.125000000       2.05649595E-08
  0.125499994       2.18002594E-08
  0.126000002       2.31176394E-08
  0.126499996       2.45254430E-08
  0.127000004       2.60322519E-08
  0.127499998       2.76468146E-08
  0.128000006       2.93780023E-08
  0.128500000       3.12347410E-08
  0.128999993       3.32260299E-08
  0.129500002       3.53608947E-08
  0.129999995       3.76484266E-08
  0.130500004       4.00978095E-08
  0.130999997       4.27183657E-08
  0.131500006       4.55196272E-08
  0.131999999       4.85114207E-08
  0.132499993       5.17039496E-08
  0.133000001       5.51079218E-08
  0.133499995       5.87346278E-08
  0.134000003       6.25960723E-08
  0.134499997       6.67050912E-08
  0.135000005       7.10754620E-08
  0.135499999       7.57219922E-08
  0.136000007       8.06606764E-08
  0.136500001       8.59087237E-08
  0.136999995       9.14847220E-08
  0.137500003       9.74086518E-08
  0.137999997       1.03701993E-07
  0.138500005       1.10387795E-07
  0.138999999       1.17490714E-07
  0.139500007       1.25037062E-07
  0.140000001       1.33054812E-07
  0.140499994       1.41573693E-07
  0.141000003       1.50625183E-07
  0.141499996       1.60242465E-07
  0.142000005       1.70460538E-07
  0.142499998       1.81316210E-07
  0.143000007       1.92848105E-07
  0.143500000       2.05096640E-07
  0.143999994       2.18104148E-07
  0.144500002       2.31914882E-07
  0.144999996       2.46574984E-07
  0.145500004       2.62132659E-07
  0.145999998       2.78638311E-07
  0.146500006       2.96144435E-07
  0.147000000       3.14705972E-07
  0.147499993       3.34380388E-07
  0.148000002       3.55227769E-07
  0.148499995       3.77311267E-07
  0.149000004       4.00697104E-07
  0.149499997       4.25454942E-07
  0.150000006       4.51658252E-07
  0.150500000       4.79384596E-07
  0.150999993       5.08715743E-07
  0.151500002       5.39738437E-07
  0.151999995       5.72544593E-07
  0.152500004       6.07231584E-07
  0.152999997       6.43902638E-07
  0.153500006       6.82667348E-07
  0.153999999       7.23642074E-07
  0.154499993       7.66949995E-07
  0.155000001       8.12721737E-07
  0.155499995       8.61095543E-07
  0.156000003       9.12217899E-07
  0.156499997       9.66243078E-07
  0.157000005       1.02333433E-06
  0.157499999       1.08366316E-06
  0.158000007       1.14741056E-06
  0.158500001       1.21476614E-06
  0.158999994       1.28592910E-06
  0.159500003       1.36110862E-06
  0.159999996       1.44052319E-06
  0.160500005       1.52440168E-06
  0.160999998       1.61298340E-06
  0.161500007       1.70651822E-06
  0.162000000       1.80526740E-06
  0.162499994       1.90950368E-06
  0.163000003       2.01951229E-06
  0.163499996       2.13559042E-06
  0.164000005       2.25804956E-06
  0.164499998       2.38721464E-06
  0.165000007       2.52342625E-06
  0.165500000       2.66703955E-06
  0.165999994       2.81842790E-06
  0.166500002       2.97798147E-06
  0.166999996       3.14610952E-06
  0.167500004       3.32324043E-06
  0.167999998       3.50982441E-06
  0.168500006       3.70633325E-06
  0.169000000       3.91326239E-06
  0.169499993       4.13113003E-06
  0.170000002       4.36048094E-06
  0.170499995       4.60188721E-06
  0.171000004       4.85594728E-06
  0.171499997       5.12328916E-06
  0.172000006       5.40456995E-06
  0.172499999       5.70047996E-06
  0.172999993       6.01174042E-06
  0.173500001       6.33910577E-06
  0.173999995       6.68336679E-06
  0.174500003       7.04534841E-06
  0.174999997       7.42591419E-06
  0.175500005       7.82596635E-06
  0.175999999       8.24644485E-06
  0.176499993       8.68833558E-06
  0.177000001       9.15266264E-06
  0.177499995       9.64049741E-06
  0.178000003       1.01529558E-05
  0.178499997       1.06912057E-05
  0.179000005       1.12564585E-05
  0.179499999       1.18499829E-05
  0.180000007       1.24730977E-05
  0.180500001       1.31271790E-05
  0.180999994       1.38136611E-05
  0.181500003       1.45340373E-05
  0.181999996       1.52898665E-05
  0.182500005       1.60827694E-05
  0.182999998       1.69144369E-05
  0.183500007       1.77866277E-05
  0.184000000       1.87011756E-05
  0.184499994       1.96599904E-05
  0.185000002       2.06650584E-05
  0.185499996       2.17184515E-05
  0.186000004       2.28223234E-05
  0.186499998       2.39789169E-05
  0.187000006       2.51905676E-05
  0.187500000       2.64597002E-05
  0.187999994       2.77888412E-05
  0.188500002       2.91806246E-05
  0.188999996       3.06377842E-05
  0.189500004       3.21631596E-05
  0.189999998       3.37597085E-05
  0.190500006       3.54305012E-05
  0.191000000       3.71787319E-05
  0.191499993       3.90077184E-05
  0.192000002       4.09209060E-05
  0.192499995       4.29218780E-05
  0.193000004       4.50143525E-05
  0.193499997       4.72021820E-05
  0.194000006       4.94893720E-05
  0.194499999       5.18800807E-05
  0.194999993       5.43786191E-05
  0.195500001       5.69894546E-05
  0.195999995       5.97172257E-05
  0.196500003       6.25667453E-05
  0.196999997       6.55429831E-05
  0.197500005       6.86510975E-05
  0.197999999       7.18964438E-05
  0.198500007       7.52845590E-05
  0.199000001       7.88211692E-05
  0.199499995       8.25122188E-05
  0.200000003       8.63638415E-05
  0.200499997       9.03824039E-05
  0.201000005       9.45744905E-05
  0.201499999       9.89468972E-05
  0.202000007       1.03506667E-04
  0.202500001       1.08261083E-04
  0.202999994       1.13217677E-04
  0.203500003       1.18384232E-04
  0.203999996       1.23768768E-04
  0.204500005       1.29379638E-04
  0.204999998       1.35225418E-04
  0.205500007       1.41314958E-04
  0.206000000       1.47657469E-04
  0.206499994       1.54262394E-04
  0.207000002       1.61139484E-04
  0.207499996       1.68298866E-04
  0.208000004       1.75750916E-04
  0.208499998       1.83506389E-04
  0.209000006       1.91576371E-04
  0.209500000       1.99972274E-04
  0.209999993       2.08705882E-04
  0.210500002       2.17789348E-04
  0.210999995       2.27235127E-04
  0.211500004       2.37056171E-04
  0.211999997       2.47265765E-04
  0.212500006       2.57877546E-04
  0.213000000       2.68905627E-04
  0.213499993       2.80364417E-04
  0.214000002       2.92268931E-04
  0.214499995       3.04634421E-04
  0.215000004       3.17476690E-04
  0.215499997       3.30811949E-04
  0.216000006       3.44656873E-04
  0.216499999       3.59028607E-04
  0.216999993       3.73944757E-04
  0.217500001       3.89423396E-04
  0.217999995       4.05483122E-04
  0.218500003       4.22142970E-04
  0.218999997       4.39422583E-04
  0.219500005       4.57341986E-04
  0.219999999       4.75921872E-04
  0.220500007       4.95183282E-04
  0.221000001       5.15147927E-04
  0.221499994       5.35838131E-04
  0.222000003       5.57276595E-04
  0.222499996       5.79486659E-04
  0.223000005       6.02492248E-04
  0.223499998       6.26317866E-04
  0.224000007       6.50988601E-04
  0.224500000       6.76530180E-04
  0.224999994       7.02968857E-04
  0.225500003       7.30331405E-04
  0.225999996       7.58645299E-04
  0.226500005       7.87938770E-04
  0.226999998       8.18240398E-04
  0.227500007       8.49579577E-04
  0.228000000       8.81986227E-04
  0.228499994       9.15491022E-04
  0.229000002       9.50125162E-04
  0.229499996       9.85920313E-04
  0.230000004       1.02290942E-03
  0.230499998       1.06112543E-03
  0.231000006       1.10060186E-03
  0.231500000       1.14137365E-03
  0.231999993       1.18347560E-03
  0.232500002       1.22694380E-03
  0.232999995       1.27181434E-03
  0.233500004       1.31812436E-03
  0.233999997       1.36591156E-03
  0.234500006       1.41521438E-03
  0.234999999       1.46607170E-03
  0.235499993       1.51852320E-03
  0.236000001       1.57260906E-03
  0.236499995       1.62837026E-03
  0.237000003       1.68584823E-03
  0.237499997       1.74508523E-03
  0.238000005       1.80612376E-03
  0.238499999       1.86900736E-03
  0.238999993       1.93378003E-03
  0.239500001       2.00048601E-03
  0.239999995       2.06917035E-03
  0.240500003       2.13987916E-03
  0.240999997       2.21265783E-03
  0.241500005       2.28755339E-03
  0.241999999       2.36461312E-03
  0.242500007       2.44388450E-03
  0.243000001       2.52541597E-03
  0.243499994       2.60925572E-03
  0.244000003       2.69545289E-03
  0.244499996       2.78405682E-03
  0.245000005       2.87511735E-03
  0.245499998       2.96868454E-03
  0.246000007       3.06480890E-03
  0.246500000       3.16354120E-03
  0.246999994       3.26493243E-03
  0.247500002       3.36903404E-03
  0.247999996       3.47589701E-03
  0.248500004       3.58557352E-03
  0.248999998       3.69811500E-03
  0.249500006       3.81357362E-03
  0.250000000       3.93200153E-03
  0.250499994       4.05345019E-03
  0.250999987       4.17797221E-03
  0.251500010       4.30561882E-03
  0.252000004       4.43644170E-03
  0.252499998       4.57049394E-03
  0.252999991       4.70782537E-03
  0.253500015       4.84848814E-03
  0.254000008       4.99253254E-03
  0.254500002       5.14000934E-03
  0.254999995       5.29096834E-03
  0.255499989       5.44545939E-03
  0.256000012       5.60353138E-03
  0.256500006       5.76523319E-03
  0.256999999       5.93061186E-03
  0.257499993       6.09971583E-03
  0.257999986       6.27259072E-03
  0.258500010       6.44928124E-03
  0.259000003       6.62983302E-03
  0.259499997       6.81428844E-03
  0.259999990       7.00269034E-03
  0.260500014       7.19508063E-03
  0.261000007       7.39149936E-03
  0.261500001       7.59198423E-03
  0.261999995       7.79657438E-03
  0.262499988       8.00530426E-03
  0.263000011       8.21820926E-03
  0.263500005       8.43532290E-03
  0.263999999       8.65667406E-03
  0.264499992       8.88229348E-03
  0.264999986       9.11220815E-03
  0.265500009       9.34644323E-03
  0.266000003       9.58502200E-03
  0.266499996       9.82796587E-03
  0.266999990       1.00752944E-02
  0.267500013       1.03270225E-02
  0.268000007       1.05831660E-02
  0.268500000       1.08437361E-02
  0.268999994       1.11087393E-02
  0.269499987       1.13781840E-02
  0.270000011       1.16520729E-02
  0.270500004       1.19304052E-02
  0.270999998       1.22131789E-02
  0.271499991       1.25003895E-02
  0.272000015       1.27920248E-02
  0.272500008       1.30880736E-02
  0.273000002       1.33885210E-02
  0.273499995       1.36933457E-02
  0.273999989       1.40025243E-02
  0.274500012       1.43160298E-02
  0.275000006       1.46338334E-02
  0.275500000       1.49558969E-02
  0.275999993       1.52821820E-02
  0.276499987       1.56126451E-02
  0.277000010       1.59472413E-02
  0.277500004       1.62859149E-02
  0.277999997       1.66286100E-02
  0.278499991       1.69752687E-02
  0.279000014       1.73258223E-02
  0.279500008       1.76801998E-02
  0.280000001       1.80383287E-02
  0.280499995       1.84001233E-02
  0.280999988       1.87655017E-02
  0.281500012       1.91343725E-02
  0.282000005       1.95066370E-02
  0.282499999       1.98821966E-02
  0.282999992       2.02609450E-02
  0.283499986       2.06427649E-02
  0.284000009       2.10275427E-02
  0.284500003       2.14151554E-02
  0.284999996       2.18054689E-02
  0.285499990       2.21983548E-02
  0.286000013       2.25936659E-02
  0.286500007       2.29912568E-02
  0.287000000       2.33909767E-02
  0.287499994       2.37926655E-02
  0.287999988       2.41961554E-02
  0.288500011       2.46012807E-02
  0.289000005       2.50078607E-02
  0.289499998       2.54157111E-02
  0.289999992       2.58246399E-02
  0.290499985       2.62344573E-02
  0.291000009       2.66449545E-02
  0.291500002       2.70559266E-02
  0.291999996       2.74671577E-02
  0.292499989       2.78784242E-02
  0.293000013       2.82895006E-02
  0.293500006       2.87001524E-02
  0.294000000       2.91101392E-02
  0.294499993       2.95192134E-02
  0.294999987       2.99271215E-02
  0.295500010       3.03336065E-02
  0.296000004       3.07384022E-02
  0.296499997       3.11412383E-02
  0.296999991       3.15418392E-02
  0.297500014       3.19399200E-02
  0.298000008       3.23351920E-02
  0.298500001       3.27273533E-02
  0.298999995       3.31161134E-02
  0.299499989       3.35011631E-02
  0.300000012       3.38821895E-02
  0.300500005       3.42588723E-02
  0.300999999       3.46308909E-02
  0.301499993       3.49979214E-02
  0.301999986       3.53596285E-02
  0.302500010       3.57156768E-02
  0.303000003       3.60657200E-02
  0.303499997       3.64094190E-02
  0.303999990       3.67464088E-02
  0.304500014       3.70763429E-02
  0.305000007       3.73988636E-02
  0.305500001       3.77136022E-02
  0.305999994       3.80201973E-02
  0.306499988       3.83182764E-02
  0.307000011       3.86074595E-02
  0.307500005       3.88873741E-02
  0.307999998       3.91576439E-02
  0.308499992       3.94178890E-02
  0.308999985       3.96677256E-02
  0.309500009       3.99067588E-02
  0.310000002       4.01346087E-02
  0.310499996       4.03508916E-02
  0.310999990       4.05552089E-02
  0.311500013       4.07471769E-02
  0.312000006       4.09263968E-02
  0.312500000       4.10924852E-02
  0.312999994       4.12450507E-02
  0.313499987       4.13837023E-02
  0.314000010       4.15080488E-02
  0.314500004       4.16177064E-02
  0.314999998       4.17122915E-02
  0.315499991       4.17914130E-02
  0.316000015       4.18546908E-02
  0.316500008       4.19017486E-02
  0.317000002       4.19322066E-02
  0.317499995       4.19456884E-02
  0.317999989       4.19418290E-02
  0.318500012       4.19202670E-02
  0.319000006       4.18806374E-02
  0.319499999       4.18225788E-02
  0.319999993       4.17457558E-02
  0.320499986       4.16498147E-02
  0.321000010       4.15344201E-02
  0.321500003       4.13992442E-02
  0.321999997       4.12439592E-02
  0.322499990       4.10682522E-02
  0.323000014       4.08718102E-02
  0.323500007       4.06543389E-02
  0.324000001       4.04155441E-02
  0.324499995       4.01551463E-02
  0.324999988       3.98728661E-02
  0.325500011       3.95684466E-02
  0.326000005       3.92416343E-02
  0.326499999       3.88921909E-02
  0.326999992       3.85198854E-02
  0.327499986       3.81244980E-02
  0.328000009       3.77058238E-02
  0.328500003       3.72636691E-02
  0.328999996       3.67978550E-02
  0.329499990       3.63082178E-02
  0.330000013       3.57945971E-02
  0.330500007       3.52568515E-02
  0.331000000       3.46948653E-02
  0.331499994       3.41085233E-02
  0.331999987       3.34977321E-02
  0.332500011       3.28624137E-02
  0.333000004       3.22025008E-02
  0.333499998       3.15179527E-02
  0.333999991       3.08087338E-02
  0.334500015       3.00748311E-02
  0.335000008       2.93162465E-02
  0.335500002       2.85330061E-02
  0.335999995       2.77251434E-02
  0.336499989       2.68927142E-02
  0.337000012       2.60357969E-02
  0.337500006       2.51544826E-02
  0.338000000       2.42488794E-02
  0.338499993       2.33191252E-02
  0.338999987       2.23653652E-02
  0.339500010       2.13877670E-02
  0.340000004       2.03865208E-02
  0.340499997       1.93618312E-02
  0.340999991       1.83139276E-02
  0.341500014       1.72430556E-02
  0.342000008       1.61494855E-02
  0.342500001       1.50335031E-02
  0.342999995       1.38954138E-02
  0.343499988       1.27355447E-02
  0.344000012       1.15542449E-02
  0.344500005       1.03518786E-02
  0.344999999       9.12883505E-03
  0.345499992       7.88552035E-03
  0.345999986       6.62236055E-03
  0.346500009       5.33980317E-03
  0.347000003       4.03831387E-03
  0.347499996       2.71837786E-03
  0.347999990       1.38050050E-03
  0.348500013       2.52061454E-05
  0.349000007      -1.34696264E-03
  0.349500000      -2.73544318E-03
  0.349999994      -4.13965620E-03
  0.350499988      -5.55900345E-03
  0.351000011      -6.99286582E-03
  0.351500005      -8.44061095E-03
  0.351999998      -9.90158692E-03
  0.352499992      -1.13751255E-02
  0.352999985      -1.28605422E-02
  0.353500009      -1.43571338E-02
  0.354000002      -1.58641841E-02
  0.354499996      -1.73809621E-02
  0.354999989      -1.89067181E-02
  0.355500013      -2.04406921E-02
  0.356000006      -2.19821092E-02
  0.356500000      -2.35301778E-02
  0.356999993      -2.50840988E-02
  0.357499987      -2.66430527E-02
  0.358000010      -2.82062218E-02
  0.358500004      -2.97727641E-02
  0.358999997      -3.13418359E-02
  0.359499991      -3.29125784E-02
  0.360000014      -3.44841219E-02
  0.360500008      -3.60555947E-02
  0.361000001      -3.76261137E-02
  0.361499995      -3.91947888E-02
  0.361999989      -4.07607257E-02
  0.362500012      -4.23230194E-02
  0.363000005      -4.38807644E-02
  0.363499999      -4.54330519E-02
  0.363999993      -4.69789654E-02
  0.364499986      -4.85175885E-02
  0.365000010      -5.00479974E-02
  0.365500003      -5.15692681E-02
  0.365999997      -5.30804954E-02
  0.366499990      -5.45807444E-02
  0.367000014      -5.60691021E-02
  0.367500007      -5.75446486E-02
  0.368000001      -5.90064749E-02
  0.368499994      -6.04536533E-02
  0.368999988      -6.18853010E-02
  0.369500011      -6.33005053E-02
  0.370000005      -6.46983683E-02
  0.370499998      -6.60780072E-02
  0.370999992      -6.74385428E-02
  0.371499985      -6.87791035E-02
  0.372000009      -7.00988397E-02
  0.372500002      -7.13968799E-02
  0.372999996      -7.26723894E-02
  0.373499990      -7.39245489E-02
  0.374000013      -7.51525462E-02
  0.374500006      -7.63555691E-02
  0.375000000      -7.75328428E-02
  0.375499994      -7.86835849E-02
  0.375999987      -7.98070505E-02
  0.376500010      -8.09025019E-02
  0.377000004      -8.19692090E-02
  0.377499998      -8.30064788E-02
  0.377999991      -8.40136111E-02
  0.378500015      -8.49899575E-02
  0.379000008      -8.59348625E-02
  0.379500002      -8.68477076E-02
  0.379999995      -8.77278820E-02
  0.380499989      -8.85748193E-02
  0.381000012      -8.93879533E-02
  0.381500006      -9.01667476E-02
  0.381999999      -9.09106955E-02
  0.382499993      -9.16193128E-02
  0.382999986      -9.22921374E-02
  0.383500010      -9.29287300E-02
  0.384000003      -9.35286805E-02
  0.384499997      -9.40916166E-02
  0.384999990      -9.46171656E-02
  0.385500014      -9.51050073E-02
  0.386000007      -9.55548435E-02
  0.386500001      -9.59663838E-02
  0.386999995      -9.63394046E-02
  0.387499988      -9.66736600E-02
  0.388000011      -9.69689712E-02
  0.388500005      -9.72251892E-02
  0.388999999      -9.74421725E-02
  0.389499992      -9.76198167E-02
  0.389999986      -9.77580473E-02
  0.390500009      -9.78568122E-02
  0.391000003      -9.79161114E-02
  0.391499996      -9.79359522E-02
  0.391999990      -9.79163721E-02
  0.392500013      -9.78574529E-02
  0.393000007      -9.77592841E-02
  0.393500000      -9.76219997E-02
  0.393999994      -9.74457711E-02
  0.394499987      -9.72307771E-02
  0.395000011      -9.69772264E-02
  0.395500004      -9.66853797E-02
  0.395999998      -9.63555053E-02
  0.396499991      -9.59879011E-02
  0.397000015      -9.55828950E-02
  0.397500008      -9.51408446E-02
  0.398000002      -9.46621373E-02
  0.398499995      -9.41471756E-02
  0.398999989      -9.35963988E-02
  0.399500012      -9.30102691E-02
  0.400000006      -9.23892558E-02
  0.400500000      -9.17338803E-02
  0.400999993      -9.10446644E-02
  0.401499987      -9.03221816E-02
  0.402000010      -8.95669907E-02
  0.402500004      -8.87797028E-02
  0.402999997      -8.79609287E-02
  0.403499991      -8.71113166E-02
  0.404000014      -8.62315297E-02
  0.404500008      -8.53222460E-02
  0.405000001      -8.43841732E-02
  0.405499995      -8.34180191E-02
  0.405999988      -8.24245363E-02
  0.406500012      -8.14044476E-02
  0.407000005      -8.03585276E-02
  0.407499999      -7.92875737E-02
  0.407999992      -7.81923607E-02
  0.408499986      -7.70737007E-02
  0.409000009      -7.59324282E-02
  0.409500003      -7.47693479E-02
  0.409999996      -7.35853165E-02
  0.410499990      -7.23811686E-02
  0.411000013      -7.11577833E-02
  0.411500007      -6.99160174E-02
  0.412000000      -6.86567426E-02
  0.412499994      -6.73808381E-02
  0.412999988      -6.60891831E-02
  0.413500011      -6.47826716E-02
  0.414000005      -6.34621978E-02
  0.414499998      -6.21286444E-02
  0.414999992      -6.07829057E-02
  0.415499985      -5.94258867E-02
  0.416000009      -5.80584779E-02
  0.416500002      -5.66815659E-02
  0.416999996      -5.52960485E-02
  0.417499989      -5.39028123E-02
  0.418000013      -5.25027402E-02
  0.418500006      -5.10967188E-02
  0.419000000      -4.96856086E-02
  0.419499993      -4.82702926E-02
  0.419999987      -4.68516201E-02
  0.420500010      -4.54304479E-02
  0.421000004      -4.40076217E-02
  0.421499997      -4.25839759E-02
  0.421999991      -4.11603376E-02
  0.422500014      -3.97375114E-02
  0.423000008      -3.83163057E-02
  0.423500001      -3.68975103E-02
  0.423999995      -3.54819000E-02
  0.424499989      -3.40702385E-02
  0.425000012      -3.26632708E-02
  0.425500005      -3.12617347E-02
  0.425999999      -2.98663508E-02
  0.426499993      -2.84778159E-02
  0.426999986      -2.70968210E-02
  0.427500010      -2.57240310E-02
  0.428000003      -2.43601017E-02