   0.00000000       4.09978607E-10
   5.00000024E-04   1.21770616E-09
   1.00000005E-03   1.96218752E-09
   1.50000001E-03   2.57110710E-09
   2.00000009E-03   2.98559755E-09
   2.49999994E-03   3.16472804E-09
   3.00000003E-03   3.08695425E-09
   3.50000011E-03   2.74816769E-09
   4.00000019E-03   2.15645435E-09
   4.49999981E-03   1.32414402E-09
   4.99999989E-03   2.58183308E-10
   5.49999997E-03  -1.04978715E-09
   6.00000005E-03  -2.63205346E-09
   6.50000013E-03  -4.55051063E-09
   7.00000022E-03  -6.89791069E-09
   7.49999983E-03  -9.79352865E-09
   8.00000038E-03  -1.33725919E-08
   8.50000046E-03  -1.77694695E-08
   8.99999961E-03  -2.30953461E-08
   9.49999969E-03  -2.94118188E-08
   9.99999978E-03  -3.67025557E-08
   1.04999999E-02  -4.48456845E-08
   1.09999999E-02  -5.35899538E-08
   1.15000000E-02  -6.25378149E-08
   1.20000001E-02  -7.11383237E-08
   1.25000002E-02  -7.86924659E-08
   1.30000003E-02  -8.43725161E-08
   1.35000004E-02  -8.72562325E-08
   1.40000004E-02  -8.63755005E-08
   1.44999996E-02  -8.07776104E-08
   1.49999997E-02  -6.95963251E-08
   1.54999997E-02  -5.21284598E-08
   1.60000008E-02  -2.79110353E-08
   1.64999999E-02   3.20685323E-09
   1.70000009E-02   4.10032825E-08
   1.75000001E-02   8.48398400E-08
   1.79999992E-02   1.33640100E-07
   1.85000002E-02   1.85894265E-07
   1.89999994E-02   2.39692639E-07
   1.95000004E-02   2.92788457E-07
   1.99999996E-02   3.42689475E-07
   2.05000006E-02   3.86773706E-07
   2.09999997E-02   4.22425444E-07
   2.15000007E-02   4.47183197E-07
   2.19999999E-02   4.58891662E-07
   2.25000009E-02   4.55848152E-07
   2.30000000E-02   4.36933306E-07
   2.34999992E-02   4.01717472E-07
   2.40000002E-02   3.50533384E-07
   2.44999994E-02   2.84509440E-07
   2.50000004E-02   2.05558365E-07
   2.54999995E-02   1.16319384E-07
   2.60000005E-02   2.00557029E-08
   2.64999997E-02  -7.94897090E-08
   2.70000007E-02  -1.78272060E-07
   2.74999999E-02  -2.72147560E-07
   2.80000009E-02  -3.57089334E-07
   2.85000000E-02  -4.29403656E-07
   2.89999992E-02  -4.85933015E-07
   2.95000002E-02  -5.24232917E-07
   2.99999993E-02  -5.42710723E-07
   3.05000003E-02  -5.40716144E-07
   3.09999995E-02  -5.18577394E-07
   3.15000005E-02  -4.77578510E-07
   3.20000015E-02  -4.19877750E-07
   3.24999988E-02  -3.48372254E-07
   3.29999998E-02  -2.66515002E-07
   3.35000008E-02  -1.78096059E-07
   3.40000018E-02  -8.70014034E-08
   3.44999991E-02   3.03530046E-09
   3.50000001E-02   8.86717189E-08
   3.55000012E-02   1.67170299E-07
   3.59999985E-02   2.36572006E-07
   3.64999995E-02   2.95817330E-07
   3.70000005E-02   3.44805841E-07
   3.75000015E-02   3.84389125E-07
   3.79999988E-02   4.16296359E-07
   3.84999998E-02   4.42996708E-07
   3.90000008E-02   4.67506368E-07
   3.95000018E-02   4.93153379E-07
   3.99999991E-02   5.23314895E-07
   4.05000001E-02   5.61146067E-07
   4.10000011E-02   6.09318022E-07
   4.14999984E-02   6.69785948E-07
   4.19999994E-02   7.43601845E-07
   4.25000004E-02   8.30789190E-07
   4.30000015E-02   9.30289730E-07
   4.34999987E-02   1.03998741E-06
   4.39999998E-02   1.15681155E-06
   4.45000008E-02   1.27691601E-06
   4.50000018E-02   1.39592237E-06
   4.54999991E-02   1.50921346E-06
   4.60000001E-02   1.61226023E-06
   4.65000011E-02   1.70095961E-06
   4.69999984E-02   1.77196000E-06
   4.74999994E-02   1.82295287E-06
   4.80000004E-02   1.85290992E-06
   4.85000014E-02   1.86224656E-06
   4.89999987E-02   1.85289809E-06
   4.94999997E-02   1.82830115E-06
   5.00000007E-02   1.79327787E-06
   5.05000018E-02   1.75382536E-06
   5.09999990E-02   1.71682291E-06
   5.15000001E-02   1.68967279E-06
   5.20000011E-02   1.67989492E-06
   5.24999984E-02   1.69470013E-06
   5.29999994E-02   1.74056879E-06
   5.35000004E-02   1.82286192E-06
   5.40000014E-02   1.94549034E-06
   5.44999987E-02   2.11066663E-06
   5.49999997E-02   2.31875447E-06
   5.55000007E-02   2.56822955E-06
   5.60000017E-02   2.85575561E-06
   5.64999990E-02   3.17637614E-06
   5.70000000E-02   3.52381221E-06
   5.75000010E-02   3.89084926E-06
   5.79999983E-02   4.26978932E-06
   5.84999993E-02   4.65294306E-06
   5.90000004E-02   5.03313686E-06
   5.95000014E-02   5.40419387E-06
   5.99999987E-02   5.76137199E-06
   6.04999997E-02   6.10171810E-06
   6.10000007E-02   6.42432269E-06
   6.15000017E-02   6.73046361E-06
   6.19999990E-02   7.02361149E-06
   6.25000000E-02   7.30932197E-06
   6.30000010E-02   7.59499335E-06
   6.35000020E-02   7.88951274E-06
   6.40000030E-02   8.20282912E-06
   6.44999966E-02   8.54545578E-06
   6.49999976E-02   8.92793469E-06
   6.54999986E-02   9.36032120E-06
   6.59999996E-02   9.85167935E-06
   6.65000007E-02   1.04096625E-05
   6.70000017E-02   1.10401734E-05
   6.75000027E-02   1.17471409E-05
   6.80000037E-02   1.25324204E-05
   6.84999973E-02   1.33958347E-05
   6.89999983E-02   1.43353236E-05
   6.94999993E-02   1.53472392E-05
   7.00000003E-02   1.64267276E-05
   7.05000013E-02   1.75681889E-05
   7.10000023E-02   1.87657934E-05
   7.15000033E-02   2.00140039E-05
   7.19999969E-02   2.13080930E-05
   7.24999979E-02   2.26446027E-05
   7.29999989E-02   2.40217323E-05
   7.34999999E-02   2.54396364E-05
   7.40000010E-02   2.69005850E-05
   7.45000020E-02   2.84090293E-05
   7.50000030E-02   2.99715157E-05
   7.54999965E-02   3.15964789E-05
   7.59999976E-02   3.32939599E-05
   7.64999986E-02   3.50751980E-05
   7.69999996E-02   3.69522350E-05
   7.75000006E-02   3.89374036E-05
   7.80000016E-02   4.10428911E-05
   7.85000026E-02   4.32803135E-05
   7.90000036E-02   4.56603229E-05
   7.94999972E-02   4.81923962E-05
   7.99999982E-02   5.08845915E-05
   8.04999992E-02   5.37435117E-05
   8.10000002E-02   5.67743809E-05
   8.15000013E-02   5.99812047E-05
   8.20000023E-02   6.33670425E-05
   8.25000033E-02   6.69343499E-05
   8.29999968E-02   7.06854189E-05
   8.34999979E-02   7.46228034E-05
   8.39999989E-02   7.87497556E-05
   8.44999999E-02   8.30706849E-05
   8.50000009E-02   8.75914629E-05
   8.55000019E-02   9.23197877E-05
   8.60000029E-02   9.72653288E-05
   8.64999965E-02   1.02439852E-04
   8.69999975E-02   1.07857202E-04
   8.74999985E-02   1.13533220E-04
   8.79999995E-02   1.19485543E-04
   8.85000005E-02   1.25733277E-04
   8.90000015E-02   1.32296729E-04
   8.95000026E-02   1.39197015E-04
   9.00000036E-02   1.46455743E-04
   9.04999971E-02   1.54094640E-04
   9.09999982E-02   1.62135329E-04
   9.14999992E-02   1.70599058E-04
   9.20000002E-02   1.79506576E-04
   9.25000012E-02   1.88878112E-04
   9.30000022E-02   1.98733440E-04
   9.35000032E-02   2.09091944E-04
   9.39999968E-02   2.19972862E-04
   9.44999978E-02   2.31395665E-04
   9.49999988E-02   2.43380273E-04
   9.54999998E-02   2.55947380E-04
   9.60000008E-02   2.69118987E-04
   9.65000018E-02   2.82918598E-04
   9.70000029E-02   2.97371414E-04
   9.74999964E-02   3.12504679E-04
   9.79999974E-02   3.28347727E-04
   9.84999985E-02   3.44932167E-04
   9.89999995E-02   3.62291845E-04
   9.95000005E-02   3.80462705E-04
  0.100000001       3.99482611E-04
  0.100500003       4.19391086E-04
  0.101000004       4.40229400E-04
  0.101499997       4.62040189E-04
  0.101999998       4.84867254E-04
  0.102499999       5.08755329E-04
  0.103000000       5.33750164E-04
  0.103500001       5.59898443E-04
  0.104000002       5.87247952E-04
  0.104500003       6.15847588E-04
  0.104999997       6.45747758E-04
  0.105499998       6.77000557E-04
  0.105999999       7.09660002E-04
  0.106500000       7.43782730E-04
  0.107000001       7.79427995E-04
  0.107500002       8.16657965E-04
  0.108000003       8.55538412E-04
  0.108499996       8.96138896E-04
  0.108999997       9.38532467E-04
  0.109499998       9.82796540E-04
  0.109999999       1.02901214E-03
  0.110500000       1.07726397E-03
  0.111000001       1.12763990E-03
  0.111500002       1.18023180E-03
  0.112000003       1.23513385E-03
  0.112499997       1.29244279E-03
  0.112999998       1.35225779E-03
  0.113499999       1.41467992E-03
  0.114000000       1.47981208E-03
  0.114500001       1.54775905E-03
  0.115000002       1.61862676E-03
  0.115500003       1.69252348E-03
  0.115999997       1.76955923E-03
  0.116499998       1.84984680E-03
  0.116999999       1.93350227E-03
  0.117500000       2.02064496E-03
  0.118000001       2.11139838E-03
  0.118500002       2.20589130E-03
  0.119000003       2.30425736E-03
  0.119499996       2.40663742E-03
  0.119999997       2.51317816E-03
  0.120499998       2.62403488E-03
  0.120999999       2.73936987E-03
  0.121500000       2.85935262E-03
  0.122000001       2.98416102E-03
  0.122500002       3.11398064E-03
  0.123000003       3.24900402E-03
  0.123499997       3.38943047E-03
  0.123999998       3.53546534E-03
  0.124499999       3.68732144E-03
  0.125000000       3.84521508E-03
  0.125499994       4.00936790E-03
  0.126000002       4.18000668E-03
  0.126499996       4.35736170E-03
  0.127000004       4.54166625E-03
  0.127499998       4.73315921E-03
  0.128000006       4.93208272E-03
  0.128500000       5.13868313E-03
  0.128999993       5.35321003E-03
  0.129500002       5.57592185E-03
  0.129999995       5.80708077E-03
  0.130500004       6.04695827E-03
  0.130999997       6.29583420E-03
  0.131500006       6.55399542E-03
  0.131999999       6.82173949E-03
  0.132499993       7.09937699E-03
  0.133000001       7.38722784E-03
  0.133499995       7.68562686E-03
  0.134000003       7.99491908E-03
  0.134499997       8.31546355E-03
  0.135000005       8.64762906E-03
  0.135499999       8.99179652E-03
  0.136000007       9.34835989E-03
  0.136500001       9.71772522E-03
  0.136999995       1.01003079E-02
  0.137500003       1.04965325E-02
  0.137999997       1.09068295E-02
  0.138500005       1.13316374E-02
  0.138999999       1.17714033E-02
  0.139500007       1.22265825E-02
  0.140000001       1.26976361E-02
  0.140499994       1.31850326E-02
  0.141000003       1.36892451E-02
  0.141499996       1.42107559E-02
  0.142000005       1.47500578E-02
  0.142499998       1.53076509E-02
  0.143000007       1.58840436E-02
  0.143500000       1.64797567E-02
  0.143999994       1.70953181E-02
  0.144500002       1.77312754E-02
  0.144999996       1.83881857E-02
  0.145500004       1.90666243E-02
  0.145999998       1.97671801E-02
  0.146500006       2.04904564E-02
  0.147000000       2.12370772E-02
  0.147499993       2.20076703E-02
  0.148000002       2.28028949E-02
  0.148499995       2.36234181E-02
  0.149000004       2.44699158E-02
  0.149499997       2.53430754E-02
  0.150000006       2.62436047E-02
  0.150500000       2.71722171E-02
  0.150999993       2.81296428E-02
  0.151500002       2.91166063E-02
  0.151999995       3.01338546E-02
  0.152500004       3.11821364E-02
  0.152999997       3.22621986E-02
  0.153500006       3.33748125E-02
  0.153999999       3.45207453E-02
  0.154499993       3.57007869E-02
  0.155000001       3.69157121E-02
  0.155499995       3.81663181E-02
  0.156000003       3.94533984E-02
  0.156499997       4.07777689E-02
  0.157000005       4.21402454E-02
  0.157499999       4.35416512E-02
  0.158000007       4.49828319E-02
  0.158500001       4.64646444E-02
  0.158999994       4.79879491E-02
  0.159500003       4.95536216E-02
  0.159999996       5.11625260E-02
  0.160500005       5.28155603E-02
  0.160999998       5.45136221E-02
  0.161500007       5.62576056E-02
  0.162000000       5.80484159E-02
  0.162499994       5.98869622E-02
  0.163000003       6.17741644E-02
  0.163499996       6.37109429E-02
  0.164000005       6.56982213E-02
  0.164499998       6.77369088E-02
  0.165000007       6.98279291E-02
  0.165500000       7.19721988E-02
  0.165999994       7.41706491E-02
  0.166500002       7.64241964E-02
  0.166999996       7.87337422E-02
  0.167500004       8.11001882E-02
  0.167999998       8.35244283E-02
  0.168500006       8.60073566E-02
  0.169000000       8.85498375E-02
  0.169499993       9.11527574E-02
  0.170000002       9.38169882E-02
  0.170499995       9.65433717E-02
  0.171000004       9.93327573E-02
  0.171499997      0.102185972    
  0.172000006      0.105103828    
  0.172499999      0.108087130    
  0.172999993      0.111136675    
  0.173500001      0.114253245    
  0.173999995      0.117437623    
  0.174500003      0.120690510    
  0.174999997      0.124012627    
  0.175500005      0.127404645    
  0.175999999      0.130867213    
  0.176499993      0.134400964    
  0.177000001      0.138006538    
  0.177499995      0.141684502    
  0.178000003      0.145435363    
  0.178499997      0.149259612    
  0.179000005      0.153157696    
  0.179499999      0.157130018    
  0.180000007      0.161176950    
  0.180500001      0.165298775    
  0.180999994      0.169495761    
  0.181500003      0.173768133    
  0.181999996      0.178116083    
  0.182500005      0.182539746    
  0.182999998      0.187039182    
  0.183500007      0.191614404    
  0.184000000      0.196265399    
  0.184499994      0.200992092    
  0.185000002      0.205794334    
  0.185499996      0.210671917    
  0.186000004      0.215624571    
  0.186499998      0.220651999    
  0.187000006      0.225753784    
  0.187500000      0.230929434    
  0.187999994      0.236178368    
  0.188500002      0.241499975    
  0.188999996      0.246893510    
  0.189500004      0.252358168    
  0.189999998      0.257893056    
  0.190500006      0.263497084    
  0.191000000      0.269169211    
  0.191499993      0.274908155    
  0.192000002      0.280712634    
  0.192499995      0.286581159    
  0.193000004      0.292512178    
  0.193499997      0.298503995    
  0.194000006      0.304554731    
  0.194499999      0.310662568    
  0.194999993      0.316825449    
  0.195500001      0.323041350    
  0.195999995      0.329307944    
  0.196500003      0.335622936    
  0.196999997      0.341983885    
  0.197500005      0.348388195    
  0.197999999      0.354833186    
  0.198500007      0.361316204    
  0.199000001      0.367834300    
  0.199499995      0.374384463    
  0.200000003      0.380963475    
  0.200499997      0.387568116    
  0.201000005      0.394194990    
  0.201499999      0.400840372    
  0.202000007      0.407500535    
  0.202500001      0.414171517    
  0.202999994      0.420849234    
  0.203500003      0.427529335    
  0.203999996      0.434207320    
  0.204500005      0.440878481    
  0.204999998      0.447537988    
  0.205500007      0.454180747    
  0.206000000      0.460801691    
  0.206499994      0.467395455    
  0.207000002      0.473956466    
  0.207499996      0.480479181    
  0.208000004      0.486957759    
  0.208499998      0.493386269    
  0.209000006      0.499758720    
  0.209500000      0.506069005    
  0.209999993      0.512310922    
  0.210500002      0.518478036    
  0.210999995      0.524563730    
  0.211500004      0.530561268    
  0.211999997      0.536463857    
  0.212500006      0.542264402    
  0.213000000      0.547955692    
  0.213499993      0.553530395    
  0.214000002      0.558981001    
  0.214499995      0.564299822    
  0.215000004      0.569478989    
  0.215499997      0.574510455    
  0.216000006      0.579386115    
  0.216499999      0.584097683    
  0.216999993      0.588636577    
  0.217500001      0.592993915    
  0.217999995      0.597160697    
  0.218500003      0.601127923    
  0.218999997      0.604886532    
  0.219500005      0.608427048    
  0.219999999      0.611740232    
  0.220500007      0.614816606    
  0.221000001      0.617646456    
  0.221499994      0.620220304    
  0.222000003      0.622528434    
  0.222499996      0.624561012    
  0.223000005      0.626308382    
  0.223499998      0.627760589    
  0.224000007      0.628907859    
  0.224500000      0.629740119    
  0.224999994      0.630247593    
  0.225500003      0.630420625    
  0.225999996      0.630249321    
  0.226500005      0.629723668    
  0.226999998      0.628833830    
  0.227500007      0.627569795    
  0.228000000      0.625921428    
  0.228499994      0.623878717    
  0.229000002      0.621431768    
  0.229499996      0.618570328    
  0.230000004      0.615284324    
  0.230499998      0.611563861    
  0.231000006      0.607398629    
  0.231500000      0.602778614    
  0.231999993      0.597694099    
  0.232500002      0.592134953    
  0.232999995      0.586091399    
  0.233500004      0.579554021    
  0.233999997      0.572513103    
  0.234500006      0.564959109    
  0.234999999      0.556882918    
  0.235499993      0.548275828    
  0.236000001      0.539129317    
  0.236499995      0.529434860    
  0.237000003      0.519184411    
  0.237499997      0.508370161    
  0.238000005      0.496984422    
  0.238499999      0.485020220    
  0.238999993      0.472470820    
  0.239500001      0.459329456    
  0.239999995      0.445589930    
  0.240500003      0.431246281    
  0.240999997      0.416292429    
  0.241500005      0.400722951    
  0.241999999      0.384533316    
  0.242500007      0.367718607    
  0.243000001      0.350274414    
  0.243499994      0.332196683    
  0.244000003      0.313481569    
  0.244499996      0.294125795    
  0.245000005      0.274126261    
  0.245499998      0.253480524    
  0.246000007      0.232186437    
  0.246500000      0.210242525    
  0.246999994      0.187647924    
  0.247500002      0.164402127    
  0.247999996      0.140505031    
  0.248500004      0.115957454    
  0.248999998       9.07607302E-02
  0.249500006       6.49167076E-02
  0.250000000       3.84279452E-02
  0.250499994       1.12978322E-02
  0.250999987      -1.64696723E-02
  0.251500010      -4.48701456E-02
  0.252000004      -7.38983974E-02
  0.252499998     -0.103548430    
  0.252999991     -0.133813441    
  0.253500015     -0.164686188    
  0.254000008     -0.196158573    
  0.254500002     -0.228221893    
  0.254999995     -0.260866910    
  0.255499989     -0.294083744    
  0.256000012     -0.327862114    
  0.256500006     -0.362191021    
  0.256999999     -0.397058547    
  0.257499993     -0.432452291    
  0.257999986     -0.468359649    
  0.258500010     -0.504766881    
  0.259000003     -0.541659176    
  0.259499997     -0.579021573    
  0.259999990     -0.616838336    
  0.260500014     -0.655092835    
  0.261000007     -0.693767667    
  0.261500001     -0.732844651    
  0.261999995     -0.772304833    
  0.262499988     -0.812128484    
  0.263000011     -0.852294803    
  0.263500005     -0.892782509    
  0.263999999     -0.933569491    
  0.264499992     -0.974632680    
  0.264999986      -1.01594818    
  0.265500009      -1.05749166    
  0.266000003      -1.09923780    
  0.266499996      -1.14116049    
  0.266999990      -1.18323338    
  0.267500013      -1.22542930    
  0.268000007      -1.26772022    
  0.268500000      -1.31007814    
  0.268999994      -1.35247386    
  0.269499987      -1.39487803    
  0.270000011      -1.43726087    
  0.270500004      -1.47959173    
  0.270999998      -1.52183962    
  0.271499991      -1.56397355    
  0.272000015      -1.60596168    
  0.272500008      -1.64777195    
  0.273000002      -1.68937159    
  0.273499995      -1.73072779    
  0.273999989      -1.77180719    
  0.274500012      -1.81257594    
  0.275000006      -1.85299969    
  0.275500000      -1.89304399    
  0.275999993      -1.93267369    
  0.276499987      -1.97185361    
  0.277000010      -2.01054835    
  0.277500004      -2.04872155    
  0.277999997      -2.08633733    
  0.278499991      -2.12335920    
  0.279000014      -2.15975094    
  0.279500008      -2.19547558    
  0.280000001      -2.23049617    
  0.280499995      -2.26477647    
  0.280999988      -2.29827929    
  0.281500012      -2.33096838    
  0.282000005      -2.36280680    
  0.282499999      -2.39375854    
  0.282999992      -2.42378688    
  0.283499986      -2.45285606    
  0.284000009      -2.48093081    
  0.284500003      -2.50797606    
  0.284999996      -2.53395748    
  0.285499990      -2.55883980    
  0.286000013      -2.58258963    
  0.286500007      -2.60517335    
  0.287000000      -2.62655783    
  0.287499994      -2.64671111    
  0.287999988      -2.66560102    
  0.288500011      -2.68319607    
  0.289000005      -2.69946551    
  0.289499998      -2.71437955    
  0.289999992      -2.72790885    
  0.290499985      -2.74002409    
  0.291000009      -2.75069785    
  0.291500002      -2.75990295    
  0.291999996      -2.76761317    
  0.292499989      -2.77380300    
  0.293000013      -2.77844882    
  0.293500006      -2.78152633    
  0.294000000      -2.78301287    
  0.294499993      -2.78288746    
  0.294999987      -2.78112984    
  0.295500010      -2.77772069    
  0.296000004      -2.77264285    
  0.296499997      -2.76587987    
  0.296999991      -2.75741649    
  0.297500014      -2.74723911    
  0.298000008      -2.73533535    
  0.298500001      -2.72169328    
  0.298999995      -2.70630336    
  0.299499989      -2.68915796    
  0.300000012      -2.67024899    
  0.300500005      -2.64957142    
  0.300999999      -2.62712121    
  0.301499993      -2.60289550    
  0.301999986      -2.57689309    
  0.302500010      -2.54911375    
  0.303000003      -2.51956010    
  0.303499997      -2.48823547    
  0.303999990      -2.45514488    
  0.304500014      -2.42029381    
  0.305000007      -2.38369060    
  0.305500001      -2.34534431    
  0.305999994      -2.30526567    
  0.306499988      -2.26346684    
  0.307000011      -2.21996260    
  0.307500005      -2.17476797    
  0.307999998      -2.12790012    
  0.308499992      -2.07937813    
  0.308999985      -2.02922225    
  0.309500009      -1.97745550    
  0.310000002      -1.92410159    
  0.310499996      -1.86918628    
  0.310999990      -1.81273627    
  0.311500013      -1.75478017    
  0.312000006      -1.69534898    
  0.312500000      -1.63447428    
  0.312999994      -1.57218993    
  0.313499987      -1.50853097    
  0.314000010      -1.44353378    
  0.314500004      -1.37723625    
  0.314999998      -1.30967796    
  0.315499991      -1.24089897    
  0.316000015      -1.17094052    
  0.316500008      -1.09984565    
  0.317000002      -1.02765942    
  0.317499995     -0.954427540    
  0.317999989     -0.880196750    
  0.318500012     -0.805015087    
  0.319000006     -0.728931427    
  0.319499999     -0.651996434    
  0.319999993     -0.574261427    
  0.320499986     -0.495778233    
  0.321000010     -0.416600823    
  0.321500003     -0.336784035    
  0.321999997     -0.256383210    
  0.322499990     -0.175454080    
  0.323000014      -9.40538421E-02
  0.323500007      -1.22404946E-02
  0.324000001       6.99279681E-02
  0.324499995      0.152392164    
  0.324999988      0.235092640    
  0.325500011      0.317969292    
  0.326000005      0.400962025    
  0.326499999      0.484010637    
  0.326999992      0.567053676    
  0.327499986      0.650030077    
  0.328000009      0.732878864    
  0.328500003      0.815537930    
  0.328999996      0.897945464    
  0.329499990      0.980040252    
  0.330000013       1.06176043    
  0.330500007       1.14304519    
  0.331000000       1.22383344    
  0.331499994       1.30406439    
  0.331999987       1.38367736    
  0.332500011       1.46261179    
  0.333000004       1.54080725    
  0.333499998       1.61820424    
  0.333999991       1.69474423    
  0.334500015       1.77036870    
  0.335000008       1.84501922    
  0.335500002       1.91863930    
  0.335999995       1.99117291    
  0.336499989       2.06256509    
  0.337000012       2.13276052    
  0.337500006       2.20170498    
  0.338000000       2.26934552    
  0.338499993       2.33563066    
  0.338999987       2.40050960    
  0.339500010       2.46393299    
  0.340000004       2.52585196    
  0.340499997       2.58622003    
  0.340999991       2.64499164    
  0.341500014       2.70212245    
  0.342000008       2.75756931    
  0.342500001       2.81129050    
  0.342999995       2.86324644    
  0.343499988       2.91339898    
  0.344000012       2.96171141    
  0.344500005       3.00814891    
  0.344999999       3.05267859    
  0.345499992       3.09526896    
  0.345999986       3.13589048    
  0.346500009       3.17451549    
  0.347000003       3.21111846    
  0.347499996       3.24567485    
  0.347999990       3.27816272    
  0.348500013       3.30856204    
  0.349000007       3.33685422    
  0.349500000       3.36302280    
  0.349999994       3.38705230    
  0.350499988       3.40892911    
  0.351000011       3.42864251    
  0.351500005       3.44618273    
  0.351999998       3.46154213    
  0.352499992       3.47471476    
  0.352999985       3.48569679    
  0.353500009       3.49448514    
  0.354000002       3.50107980    
  0.354499996       3.50548244    
  0.354999989       3.50769663    
  0.355500013       3.50772858    
  0.356000006       3.50558543    
  0.356500000       3.50127697    
  0.356999993       3.49481535    
  0.357499987       3.48621440    
  0.358000010       3.47548962    
  0.358500004       3.46265888    
  0.358999997       3.44774222    
  0.359499991       3.43076110    
  0.360000014       3.41173863    
  0.360500008       3.39070010    
  0.361000001       3.36767268    
  0.361499995       3.34268498    
  0.361999989       3.31576610    
  0.362500012       3.28694820    
  0.363000005       3.25626397    
  0.363499999       3.22374773    
  0.363999993       3.18943429    
  0.364499986       3.15336061    
  0.365000010       3.11556435    
  0.365500003       3.07608461    
  0.365999997       3.03496170    
  0.366499990       2.99223638    
  0.367000014       2.94795108    
  0.367500007       2.90214920    
  0.368000001       2.85487533    
  0.368499994       2.80617476    
  0.368999988       2.75609493    
  0.369500011       2.70468330    
  0.370000005       2.65198874    
  0.370499998       2.59806156    
  0.370999992       2.54295278    
  0.371499985       2.48671365    
  0.372000009       2.42939711    
  0.372500002       2.37105584    
  0.372999996       2.31174445    
  0.373499990       2.25151730    
  0.374000013       2.19042921    
  0.374500006       2.12853479    
  0.375000000       2.06589007    
  0.375499994       2.00255108    
  0.375999987       1.93857217    
  0.376500010       1.87400877    
  0.377000004       1.80891633    
  0.377499998       1.74334967    
  0.377999991       1.67736340    
  0.378500015       1.61101186    
  0.379000008       1.54434943    
  0.379500002       1.47743022    
  0.379999995       1.41030729    
  0.380499989       1.34303391    
  0.381000012       1.27566278    
  0.381500006       1.20824671    
  0.381999999       1.14083731    
  0.382499993       1.07348669    
  0.382999986       1.00624597    
  0.383500010      0.939165294    
  0.384000003      0.872294784    
  0.384499997      0.805684209    
  0.384999990      0.739382625    
  0.385500014      0.673438370    
  0.386000007      0.607899129    
  0.386500001      0.542811632    
  0.386999995      0.478221983    
  0.387499988      0.414175302    
  0.388000011      0.350715339    
  0.388500005      0.287885010    
  0.388999999      0.225726232    
  0.389499992      0.164279938    
  0.389999986      0.103584945    
  0.390500009       4.36789952E-02
  0.391000003      -1.54011147E-02
  0.391499996      -7.36199915E-02
  0.391999990     -0.130943403    
  0.392500013     -0.187338933    
  0.393000007     -0.242775172    
  0.393500000     -0.297221899    
  0.393999994     -0.350650489    
  0.394499987     -0.403033257    
  0.395000011     -0.454344451    
  0.395500004     -0.504559457    
  0.395999998     -0.553654194    
  0.396499991     -0.601606190    
  0.397000015     -0.648393929    
  0.397500008     -0.693997264    
  0.398000002     -0.738397062    
  0.398499995     -0.781575382    
  0.398999989     -0.823515654    
  0.399500012     -0.864202201    
  0.400000006     -0.903621137    
  0.400500000     -0.941760123    
  0.400999993     -0.978608072    
  0.401499987      -1.01415539    
  0.402000010      -1.04839337    
  0.402500004      -1.08131504    
  0.402999997      -1.11291516    
  0.403499991      -1.14318991    
  0.404000014      -1.17213678    
  0.404500008      -1.19975376    
  0.405000001      -1.22604120    
  0.405499995      -1.25100040    
  0.405999988      -1.27463400    
  0.406500012      -1.29694557    
  0.407000005      -1.31793988    
  0.407499999      -1.33762252    
  0.407999992      -1.35600007    
  0.408499986      -1.37308025    
  0.409000009      -1.38887167    
  0.409500003      -1.40338361    
  0.409999996      -1.41662633    
  0.410499990      -1.42861116    
  0.411000013      -1.43934941    
  0.411500007      -1.44885385    
  0.412000000      -1.45713842    
  0.412499994      -1.46421707    
  0.412999988      -1.47010493    
  0.413500011      -1.47481787    
  0.414000005      -1.47837293    
  0.414499998      -1.48078811    
  0.414999992      -1.48208201    
  0.415499985      -1.48227370    
  0.416000009      -1.48138368    
  0.416500002      -1.47943306    
  0.416999996      -1.47644377    
  0.417499989      -1.47243798    
  0.418000013      -1.46743870    
  0.418500006      -1.46146965    
  0.419000000      -1.45455515    
  0.419499993      -1.44671977    
  0.419999987      -1.43798816    
  0.420500010      -1.42838562    
  0.421000004      -1.41793728    
  0.421499997      -1.40666878    
  0.421999991      -1.39460540    
  0.422500014      -1.38177288    
  0.423000008      -1.36819661    
  0.423500001      -1.35390234    
  0.423999995      -1.33891571    
  0.424499989      -1.32326233    
  0.425000012      -1.30696762    
  0.425500005      -1.29005730    
  0.425999999      -1.27255678    
  0.426499993      -1.25449181    
  0.426999986      -1.23588836    
  0.427500010      -1.21677256    
  0.428000003      -1.19717014    