   0.00000000       0.00000000    
   5.00000024E-04   0.00000000    
   1.00000005E-03   0.00000000    
   1.50000001E-03   0.00000000    
   2.00000009E-03   4.40683400E-22
   2.49999994E-03   3.82081995E-21
   3.00000003E-03   1.81999413E-20
   3.50000011E-03   6.27821038E-20
   4.00000019E-03   1.74661952E-19
   4.49999981E-03   4.14068287E-19
   4.99999989E-03   8.63175894E-19
   5.49999997E-03   1.61107187E-18
   6.00000005E-03   2.71528281E-18
   6.50000013E-03   4.12914169E-18
   7.00000022E-03   5.58510737E-18
   7.49999983E-03   6.42791756E-18
   8.00000038E-03   5.39904549E-18
   8.50000046E-03   3.85835398E-19
   8.99999961E-03  -1.18351050E-17
   9.49999969E-03  -3.58111203E-17
   9.99999978E-03  -7.75130570E-17
   1.04999999E-02  -1.44231235E-16
   1.09999999E-02  -2.44163997E-16
   1.15000000E-02  -3.85590970E-16
   1.20000001E-02  -5.75534694E-16
   1.25000002E-02  -8.17846733E-16
   1.30000003E-02  -1.11070869E-15
   1.35000004E-02  -1.44362049E-15
   1.40000004E-02  -1.79405115E-15
   1.44999996E-02  -2.12405116E-15
   1.49999997E-02  -2.37725768E-15
   1.54999997E-02  -2.47684610E-15
   1.60000008E-02  -2.32509295E-15
   1.64999999E-02  -1.80526840E-15
   1.70000009E-02  -7.86574065E-16
   1.75000001E-02   8.67242465E-16
   1.79999992E-02   3.28516519E-15
   1.85000002E-02   6.57194314E-15
   1.89999994E-02   1.07871611E-14
   1.95000004E-02   1.59211515E-14
   1.99999996E-02   2.18691151E-14
   2.05000006E-02   2.84054854E-14
   2.09999997E-02   3.51611000E-14
   2.15000007E-02   4.16063194E-14
   2.19999999E-02   4.70435628E-14
   2.25000009E-02   5.06127732E-14
   2.30000000E-02   5.13132424E-14
   2.34999992E-02   4.80445490E-14
   2.40000002E-02   3.96684435E-14
   2.44999994E-02   2.50921093E-14
   2.50000004E-02   3.37146980E-15
   2.54999995E-02  -2.61688237E-14
   2.60000005E-02  -6.38044305E-14
   2.64999997E-02  -1.09277320E-13
   2.70000007E-02  -1.61668828E-13
   2.74999999E-02  -2.19291734E-13
   2.80000009E-02  -2.79614331E-13
   2.85000000E-02  -3.39229973E-13
   2.89999992E-02  -3.93884903E-13
   2.95000002E-02  -4.38575256E-13
   2.99999993E-02  -4.67721294E-13
   3.05000003E-02  -4.75422436E-13
   3.09999995E-02  -4.55791438E-13
   3.15000005E-02  -4.03359746E-13
   3.20000015E-02  -3.13539125E-13
   3.24999988E-02  -1.83118047E-13
   3.29999998E-02  -1.07642963E-14
   3.35000008E-02   2.02500370E-13
   3.40000018E-02   4.52890899E-13
   3.44999991E-02   7.33555740E-13
   3.50000001E-02   1.03441940E-12
   3.55000012E-02   1.34220564E-12
   3.59999985E-02   1.64067306E-12
   3.64999995E-02   1.91107980E-12
   3.70000005E-02   2.13288718E-12
   3.75000015E-02   2.28469392E-12
   3.79999988E-02   2.34537433E-12
   3.84999998E-02   2.29538133E-12
   3.90000008E-02   2.11815331E-12
   3.95000018E-02   1.80155251E-12
   3.99999991E-02   1.33924577E-12
   4.05000001E-02   7.31934695E-13
   4.10000011E-02  -1.16632778E-14
   4.14999984E-02  -8.74177629E-13
   4.19999994E-02  -1.82937541E-12
   4.25000004E-02  -2.84244807E-12
   4.30000015E-02  -3.87084028E-12
   4.34999987E-02  -4.86563134E-12
   4.39999998E-02  -5.77346200E-12
   4.45000008E-02  -6.53893563E-12
   4.50000018E-02  -7.10742489E-12
   4.54999991E-02  -7.42813883E-12
   4.60000001E-02  -7.45730647E-12
   4.65000011E-02  -7.16129890E-12
   4.69999984E-02  -6.51948114E-12
   4.74999994E-02  -5.52662343E-12
   4.80000004E-02  -4.19465504E-12
   4.85000014E-02  -2.55361465E-12
   4.89999987E-02  -6.51654945E-13
   4.94999997E-02   1.44597843E-12
   5.00000007E-02   3.65903054E-12
   5.05000018E-02   5.89534454E-12
   5.09999990E-02   8.05489789E-12
   5.15000001E-02   1.00346008E-11
   5.20000011E-02   1.17336314E-11
   5.24999984E-02   1.30590356E-11
   5.29999994E-02   1.39312667E-11
   5.35000004E-02   1.42893388E-11
   5.40000014E-02   1.40952458E-11
   5.44999987E-02   1.33373295E-11
   5.49999997E-02   1.20323291E-11
   5.55000007E-02   1.02258826E-11
   5.60000017E-02   7.99135150E-12
   5.64999990E-02   5.42693451E-12
   5.70000000E-02   2.65112736E-12
   5.75000010E-02  -2.03294806E-13
   5.79999983E-02  -2.99649064E-12
   5.84999993E-02  -5.58959302E-12
   5.90000004E-02  -7.85313047E-12
   5.95000014E-02  -9.67531437E-12
   5.99999987E-02  -1.09696792E-11
   6.04999997E-02  -1.16815307E-11
   6.10000007E-02  -1.17927569E-11
   6.15000017E-02  -1.13245446E-11
   6.19999990E-02  -1.03377550E-11
   6.25000000E-02  -8.93073462E-12
   6.30000010E-02  -7.23458533E-12
   6.35000020E-02  -5.40600334E-12
   6.40000030E-02  -3.61801214E-12
   6.44999966E-02  -2.04903781E-12
   6.49999976E-02  -8.70932341E-13
   6.54999986E-02  -2.36631434E-13
   6.59999996E-02  -2.68226684E-13
   6.65000007E-02  -1.04623569E-12
   6.70000017E-02  -2.60083838E-12
   6.75000027E-02  -4.90576633E-12
   6.80000037E-02  -7.87541213E-12
   6.84999973E-02  -1.13655535E-11
   6.89999983E-02  -1.51778919E-11
   6.94999993E-02  -1.90683632E-11
   7.00000003E-02  -2.27589666E-11
   7.05000013E-02  -2.59525856E-11
   7.10000023E-02  -2.83500914E-11
   7.15000033E-02  -2.96688160E-11
   7.19999969E-02  -2.96613532E-11
   7.24999979E-02  -2.81335510E-11
   7.29999989E-02  -2.49605527E-11
   7.34999999E-02  -2.00998020E-11
   7.40000010E-02  -1.36000386E-11
   7.45000020E-02  -5.60551215E-12
   7.50000030E-02   3.64512066E-12
   7.54999965E-02   1.38254486E-11
   7.59999976E-02   2.45334222E-11
   7.64999986E-02   3.53085373E-11
   7.69999996E-02   4.56533075E-11
   7.75000006E-02   5.50580449E-11
   7.80000016E-02   6.30276248E-11
   7.85000026E-02   6.91088367E-11
   7.90000036E-02   7.29166727E-11
   7.94999972E-02   7.41581102E-11
   7.99999982E-02   7.26518359E-11
   8.04999992E-02   6.83426440E-11
   8.10000002E-02   6.13093951E-11
   8.15000013E-02   5.17659596E-11
   8.20000023E-02   4.00546818E-11
   8.25000033E-02   2.66326024E-11
   8.29999968E-02   1.20508395E-11
   8.34999979E-02  -3.07181342E-12
   8.39999989E-02  -1.80798293E-11
   8.44999999E-02  -3.23147863E-11
   8.50000009E-02  -4.51502516E-11
   8.55000019E-02  -5.60257743E-11
   8.60000029E-02  -6.44780410E-11
   8.64999965E-02  -7.01673233E-11
   8.69999975E-02  -7.28975977E-11
   8.74999985E-02  -7.26291804E-11
   8.79999995E-02  -6.94826835E-11
   8.85000005E-02  -6.37343303E-11
   8.90000015E-02  -5.58022899E-11
   8.95000026E-02  -4.62250273E-11
   9.00000036E-02  -3.56324727E-11
   9.04999971E-02  -2.47117379E-11
   9.09999982E-02  -1.41691676E-11
   9.14999992E-02  -4.69088266E-12
   9.20000002E-02   3.09598723E-12
   9.25000012E-02   8.65912203E-12
   9.30000022E-02   1.15918403E-11
   9.35000032E-02   1.16371114E-11
   9.39999968E-02   8.70335835E-12
   9.44999978E-02   2.87110396E-12
   9.49999988E-02  -5.60994523E-12
   9.54999998E-02  -1.63332195E-11
   9.60000008E-02  -2.87562873E-11
   9.65000018E-02  -4.22293034E-11
   9.70000029E-02  -5.60292333E-11
   9.74999964E-02  -6.93977931E-11
   9.79999974E-02  -8.15809087E-11
   9.84999985E-02  -9.18673332E-11
   9.89999995E-02  -9.96241353E-11
   9.95000005E-02  -1.04327054E-10
  0.100000001      -1.05583944E-10
  0.100500003      -1.03150044E-10
  0.101000004      -9.69342176E-11
  0.101499997      -8.69961811E-11
  0.101999998      -7.35348657E-11
  0.102499999      -5.68689956E-11
  0.103000000      -3.74112859E-11
  0.103500001      -1.56381158E-11
  0.104000002       7.94327364E-12
  0.104500003       3.28277301E-11
  0.104999997       5.85431495E-11
  0.105499998       8.46773207E-11
  0.105999999       1.10898943E-10
  0.106500000       1.36971531E-10
  0.107000001       1.62759334E-10
  0.107500002       1.88225172E-10
  0.108000003       2.13420462E-10
  0.108499996       2.38468578E-10
  0.108999997       2.63542799E-10
  0.109499998       2.88840951E-10
  0.109999999       3.14558990E-10
  0.110500000       3.40865419E-10
  0.111000001       3.67879338E-10
  0.111500002       3.95653871E-10
  0.112000003       4.24166896E-10
  0.112499997       4.53319993E-10
  0.112999998       4.82946516E-10
  0.113499999       5.12828613E-10
  0.114000000       5.42722089E-10
  0.114500001       5.72388636E-10
  0.115000002       6.01631966E-10
  0.115500003       6.30336783E-10
  0.115999997       6.58506638E-10
  0.116499998       6.86298296E-10
  0.116999999       7.14049708E-10
  0.117500000       7.42298722E-10
  0.118000001       7.71790465E-10
  0.118500002       8.03471900E-10
  0.119000003       8.38472736E-10
  0.119499996       8.78073392E-10
  0.119999997       9.23660093E-10
  0.120499998       9.76670078E-10
  0.120999999       1.03852904E-09
  0.121500000       1.11058485E-09
  0.122000001       1.19404064E-09
  0.122500002       1.28989330E-09
  0.123000003       1.39887912E-09
  0.123499997       1.52143376E-09
  0.123999998       1.65766678E-09
  0.124499999       1.80735593E-09
  0.125000000       1.96996175E-09
  0.125499994       2.14466378E-09
  0.126000002       2.33041764E-09
  0.126499996       2.52602961E-09
  0.127000004       2.73024803E-09
  0.127499998       2.94186608E-09
  0.128000006       3.15983018E-09
  0.128500000       3.38334849E-09
  0.128999993       3.61199470E-09
  0.129500002       3.84580057E-09
  0.129999995       4.08532763E-09
  0.130500004       4.33172076E-09
  0.130999997       4.58673100E-09
  0.131500006       4.85271201E-09
  0.131999999       5.13258547E-09
  0.132499993       5.42977485E-09
  0.133000001       5.74811265E-09
  0.133499995       6.09172623E-09
  0.134000003       6.46490017E-09
  0.134499997       6.87193236E-09
  0.135000005       7.31698302E-09
  0.135499999       7.80392906E-09
  0.136000007       8.33623126E-09
  0.136500001       8.91682195E-09
  0.136999995       9.54802371E-09
  0.137500003       1.02314974E-08
  0.137999997       1.09682325E-08
  0.138500005       1.17585781E-08
  0.138999999       1.26023192E-08
  0.139500007       1.34987843E-08
  0.140000001       1.44470054E-08
  0.140499994       1.54458917E-08
  0.141000003       1.64944360E-08
  0.141499996       1.75919403E-08
  0.142000005       1.87382234E-08
  0.142499998       1.99338519E-08
  0.143000007       2.11803286E-08
  0.143500000       2.24802559E-08
  0.143999994       2.38374867E-08
  0.144500002       2.52571919E-08
  0.144999996       2.67459157E-08
  0.145500004       2.83115398E-08
  0.145999998       2.99632390E-08
  0.146500006       3.17113340E-08
  0.147000000       3.35671686E-08
  0.147499993       3.55428611E-08
  0.148000002       3.76511018E-08
  0.148499995       3.99049007E-08
  0.149000004       4.23173319E-08
  0.149499997       4.49012880E-08
  0.150000006       4.76692641E-08
  0.150500000       5.06331759E-08
  0.150999993       5.38042002E-08
  0.151500002       5.71927146E-08
  0.151999995       6.08082473E-08
  0.152500004       6.46595311E-08
  0.152999997       6.87545949E-08
  0.153500006       7.31009493E-08
  0.153999999       7.77057920E-08
  0.154499993       8.25762925E-08
  0.155000001       8.77198900E-08
  0.155499995       9.31446351E-08
  0.156000003       9.88595517E-08
  0.156499997       1.04874957E-07
  0.157000005       1.11202787E-07
  0.157499999       1.17856914E-07
  0.158000007       1.24853358E-07
  0.158500001       1.32210459E-07
  0.158999994       1.39949123E-07
  0.159500003       1.48092710E-07
  0.159999996       1.56667184E-07
  0.160500005       1.65700925E-07
  0.160999998       1.75224628E-07
  0.161500007       1.85271176E-07
  0.162000000       1.95875288E-07
  0.162499994       2.07073441E-07
  0.163000003       2.18903423E-07
  0.163499996       2.31404243E-07
  0.164000005       2.44615791E-07
  0.164499998       2.58578694E-07
  0.165000007       2.73334081E-07
  0.165500000       2.88923673E-07
  0.165999994       3.05389648E-07
  0.166500002       3.22774582E-07
  0.166999996       3.41121904E-07
  0.167500004       3.60475724E-07
  0.167999998       3.80881431E-07
  0.168500006       4.02385865E-07
  0.169000000       4.25037740E-07
  0.169499993       4.48887988E-07
  0.170000002       4.73990298E-07
  0.170499995       5.00401597E-07
  0.171000004       5.28182170E-07
  0.171499997       5.57396277E-07
  0.172000006       5.88112584E-07
  0.172499999       6.20404251E-07
  0.172999993       6.54349094E-07
  0.173500001       6.90029992E-07
  0.173999995       7.27534996E-07
  0.174500003       7.66956930E-07
  0.174999997       8.08393793E-07
  0.175500005       8.51948585E-07
  0.175999999       8.97729137E-07
  0.176499993       9.45848058E-07
  0.177000001       9.96422273E-07
  0.177499995       1.04957337E-06
  0.178000003       1.10542749E-06
  0.178499997       1.16411468E-06
  0.179000005       1.22576978E-06
  0.179499999       1.29053183E-06
  0.180000007       1.35854430E-06
  0.180500001       1.42995589E-06
  0.180999994       1.50492019E-06
  0.181500003       1.58359660E-06
  0.181999996       1.66614996E-06
  0.182500005       1.75275227E-06
  0.182999998       1.84358203E-06
  0.183500007       1.93882556E-06
  0.184000000       2.03867762E-06
  0.184499994       2.14334136E-06
  0.185000002       2.25302961E-06
  0.185499996       2.36796473E-06
  0.186000004       2.48837955E-06
  0.186499998       2.61451783E-06
  0.187000006       2.74663444E-06
  0.187500000       2.88499541E-06
  0.187999994       3.02987883E-06
  0.188500002       3.18157413E-06
  0.188999996       3.34038350E-06
  0.189500004       3.50662071E-06
  0.189999998       3.68061205E-06
  0.190500006       3.86269585E-06
  0.191000000       4.05322453E-06
  0.191499993       4.25256121E-06
  0.192000002       4.46108288E-06
  0.192499995       4.67918017E-06
  0.193000004       4.90725597E-06
  0.193499997       5.14572866E-06
  0.194000006       5.39503026E-06
  0.194499999       5.65560822E-06
  0.194999993       5.92792549E-06
  0.195500001       6.21246227E-06
  0.195999995       6.50971560E-06
  0.196500003       6.82020027E-06
  0.196999997       7.14445150E-06
  0.197500005       7.48302136E-06
  0.197999999       7.83648466E-06
  0.198500007       8.20543573E-06
  0.199000001       8.59049487E-06
  0.199499995       8.99230236E-06
  0.200000003       9.41152211E-06
  0.200499997       9.84884264E-06
  0.201000005       1.03049788E-05
  0.201499999       1.07806682E-05
  0.202000007       1.12766766E-05
  0.202500001       1.17937934E-05
  0.202999994       1.23328382E-05
  0.203500003       1.28946558E-05
  0.203999996       1.34801176E-05
  0.204500005       1.40901266E-05
  0.204999998       1.47256142E-05
  0.205500007       1.53875390E-05
  0.206000000       1.60768905E-05
  0.206499994       1.67946891E-05
  0.207000002       1.75419918E-05
  0.207499996       1.83198772E-05
  0.208000004       1.91294657E-05
  0.208499998       1.99719143E-05
  0.209000006       2.08484089E-05
  0.209500000       2.17601755E-05
  0.209999993       2.27084784E-05
  0.210500002       2.36946162E-05
  0.210999995       2.47199314E-05
  0.211500004       2.57858082E-05
  0.211999997       2.68936674E-05
  0.212500006       2.80449785E-05
  0.213000000       2.92412515E-05
  0.213499993       3.04840414E-05
  0.214000002       3.17749509E-05
  0.214499995       3.31156225E-05
  0.215000004       3.45077497E-05
  0.215499997       3.59530750E-05
  0.216000006       3.74533847E-05
  0.216499999       3.90105124E-05
  0.216999993       4.06263462E-05
  0.217500001       4.23028250E-05
  0.217999995       4.40419353E-05
  0.218500003       4.58457143E-05
  0.218999997       4.77162503E-05
  0.219500005       4.96556895E-05
  0.219999999       5.16662294E-05
  0.220500007       5.37501182E-05
  0.221000001       5.59096661E-05
  0.221499994       5.81472341E-05
  0.222000003       6.04652596E-05
  0.222499996       6.28662165E-05
  0.223000005       6.53526440E-05
  0.223499998       6.79271470E-05
  0.224000007       7.05923885E-05
  0.224500000       7.33510969E-05
  0.224999994       7.62060590E-05
  0.225500003       7.91601342E-05
  0.225999996       8.22162328E-05
  0.226500005       8.53773381E-05
  0.226999998       8.86464913E-05
  0.227500007       9.20268212E-05
  0.228000000       9.55214782E-05
  0.228499994       9.91337147E-05
  0.229000002       1.02866841E-04
  0.229499996       1.06724226E-04
  0.230000004       1.10709283E-04
  0.230499998       1.14825547E-04
  0.231000006       1.19076540E-04
  0.231500000       1.23465899E-04
  0.231999993       1.27997308E-04
  0.232500002       1.32674555E-04
  0.232999995       1.37501411E-04
  0.233500004       1.42481775E-04
  0.233999997       1.47619590E-04
  0.234500006       1.52918859E-04
  0.234999999       1.58383627E-04
  0.235499993       1.64018071E-04
  0.236000001       1.69826351E-04
  0.236499995       1.75812747E-04
  0.237000003       1.81981566E-04
  0.237499997       1.88337173E-04
  0.238000005       1.94884051E-04
  0.238499999       2.01626652E-04
  0.238999993       2.08569574E-04
  0.239500001       2.15717417E-04
  0.239999995       2.23074836E-04
  0.240500003       2.30646547E-04
  0.240999997       2.38437337E-04
  0.241500005       2.46452022E-04
  0.241999999       2.54695449E-04
  0.242500007       2.63172522E-04
  0.243000001       2.71888188E-04
  0.243499994       2.80847453E-04
  0.244000003       2.90055235E-04
  0.244499996       2.99516629E-04
  0.245000005       3.09236726E-04
  0.245499998       3.19220533E-04
  0.246000007       3.29473201E-04
  0.246500000       3.39999824E-04
  0.246999994       3.50805582E-04
  0.247500002       3.61895596E-04
  0.247999996       3.73274990E-04
  0.248500004       3.84948944E-04
  0.248999998       3.96922609E-04
  0.249500006       4.09201137E-04
  0.250000000       4.21789679E-04
  0.250499994       4.34693357E-04
  0.250999987       4.47917293E-04
  0.251500010       4.61466523E-04
  0.252000004       4.75346198E-04
  0.252499998       4.89561353E-04
  0.252999991       5.04116993E-04
  0.253500015       5.19018038E-04
  0.254000008       5.34269435E-04
  0.254500002       5.49876131E-04
  0.254999995       5.65842725E-04
  0.255499989       5.82173991E-04
  0.256000012       5.98874583E-04
  0.256500006       6.15948986E-04
  0.256999999       6.33401680E-04
  0.257499993       6.51236973E-04
  0.257999986       6.69459056E-04
  0.258500010       6.88072119E-04
  0.259000003       7.07080006E-04
  0.259499997       7.26486614E-04
  0.259999990       7.46295613E-04
  0.260500014       7.66510435E-04
  0.261000007       7.87134515E-04
  0.261500001       8.08171055E-04
  0.261999995       8.29623023E-04
  0.262499988       8.51493212E-04
  0.263000011       8.73784244E-04
  0.263500005       8.96498677E-04
  0.263999999       9.19638493E-04
  0.264499992       9.43205843E-04
  0.264999986       9.67202534E-04
  0.265500009       9.91629902E-04
  0.266000003       1.01648935E-03
  0.266499996       1.04178174E-03
  0.266999990       1.06750790E-03
  0.267500013       1.09366828E-03
  0.268000007       1.12026301E-03
  0.268500000       1.14729174E-03
  0.268999994       1.17475411E-03
  0.269499987       1.20264909E-03
  0.270000011       1.23097573E-03
  0.270500004       1.25973218E-03
  0.270999998       1.28891657E-03
  0.271499991       1.31852680E-03
  0.272000015       1.34855986E-03
  0.272500008       1.37901271E-03
  0.273000002       1.40988175E-03
  0.273499995       1.44116289E-03
  0.273999989       1.47285184E-03
  0.274500012       1.50494359E-03
  0.275000006       1.53743278E-03
  0.275500000       1.57031370E-03
  0.275999993       1.60357996E-03
  0.276499987       1.63722481E-03
  0.277000010       1.67124090E-03
  0.277500004       1.70562044E-03
  0.277999997       1.74035504E-03
  0.278499991       1.77543599E-03
  0.279000014       1.81085372E-03
  0.279500008       1.84659811E-03
  0.280000001       1.88265892E-03
  0.280499995       1.91902462E-03
  0.280999988       1.95568381E-03
  0.281500012       1.99262379E-03
  0.282000005       2.02983152E-03
  0.282499999       2.06729374E-03
  0.282999992       2.10499601E-03
  0.283499986       2.14292342E-03
  0.284000009       2.18106061E-03
  0.284500003       2.21939129E-03
  0.284999996       2.25789845E-03
  0.285499990       2.29656487E-03
  0.286000013       2.33537192E-03
  0.286500007       2.37430120E-03
  0.287000000       2.41333270E-03
  0.287499994       2.45244638E-03
  0.287999988       2.49162107E-03
  0.288500011       2.53083557E-03
  0.289000005       2.57006730E-03
  0.289499998       2.60929298E-03
  0.289999992       2.64848955E-03
  0.290499985       2.68763164E-03
  0.291000009       2.72669503E-03
  0.291500002       2.76565319E-03
  0.291999996       2.80448026E-03
  0.292499989       2.84314854E-03
  0.293000013       2.88163032E-03
  0.293500006       2.91989651E-03
  0.294000000       2.95791798E-03
  0.294499993       2.99566472E-03
  0.294999987       3.03310598E-03
  0.295500010       3.07021034E-03
  0.296000004       3.10694566E-03
  0.296499997       3.14327935E-03
  0.296999991       3.17917787E-03
  0.297500014       3.21460702E-03
  0.298000008       3.24953254E-03
  0.298500001       3.28391860E-03
  0.298999995       3.31772957E-03
  0.299499989       3.35092912E-03
  0.300000012       3.38347978E-03
  0.300500005       3.41534428E-03
  0.300999999       3.44648468E-03
  0.301499993       3.47686186E-03
  0.301999986       3.50643671E-03
  0.302500010       3.53516964E-03
  0.303000003       3.56302038E-03
  0.303499997       3.58994817E-03
  0.303999990       3.61591228E-03
  0.304500014       3.64087150E-03
  0.305000007       3.66478413E-03
  0.305500001       3.68760782E-03
  0.305999994       3.70930065E-03
  0.306499988       3.72981955E-03
  0.307000011       3.74912168E-03
  0.307500005       3.76716419E-03
  0.307999998       3.78390378E-03
  0.308499992       3.79929715E-03
  0.308999985       3.81330005E-03
  0.309500009       3.82586964E-03
  0.310000002       3.83696170E-03
  0.310499996       3.84653336E-03
  0.310999990       3.85453925E-03
  0.311500013       3.86093697E-03
  0.312000006       3.86568322E-03
  0.312500000       3.86873377E-03
  0.312999994       3.87004623E-03
  0.313499987       3.86957685E-03
  0.314000010       3.86728323E-03
  0.314500004       3.86312325E-03
  0.314999998       3.85705498E-03
  0.315499991       3.84903676E-03
  0.316000015       3.83902737E-03
  0.316500008       3.82698653E-03
  0.317000002       3.81287374E-03
  0.317499995       3.79665010E-03
  0.317999989       3.77827673E-03
  0.318500012       3.75771546E-03
  0.319000006       3.73492949E-03
  0.319499999       3.70988226E-03
  0.319999993       3.68253840E-03
  0.320499986       3.65286367E-03
  0.321000010       3.62082408E-03
  0.321500003       3.58638749E-03
  0.321999997       3.54952249E-03
  0.322499990       3.51019902E-03
  0.323000014       3.46838799E-03
  0.323500007       3.42406123E-03
  0.324000001       3.37719289E-03
  0.324499995       3.32775689E-03
  0.324999988       3.27572995E-03
  0.325500011       3.22108949E-03
  0.326000005       3.16381524E-03
  0.326499999       3.10388720E-03
  0.326999992       3.04128835E-03
  0.327499986       2.97600217E-03
  0.328000009       2.90801469E-03
  0.328500003       2.83731334E-03
  0.328999996       2.76388763E-03
  0.329499990       2.68772873E-03
  0.330000013       2.60882941E-03
  0.330500007       2.52718525E-03
  0.331000000       2.44279322E-03
  0.331499994       2.35565263E-03
  0.331999987       2.26576510E-03
  0.332500011       2.17313389E-03
  0.333000004       2.07776483E-03
  0.333499998       1.97966606E-03
  0.333999991       1.87884807E-03
  0.334500015       1.77532341E-03
  0.335000008       1.66910701E-03
  0.335500002       1.56021642E-03
  0.335999995       1.44867122E-03
  0.336499989       1.33449386E-03
  0.337000012       1.21770881E-03
  0.337500006       1.09834352E-03
  0.338000000       9.76427458E-04
  0.338499993       8.51992867E-04
  0.338999987       7.25074613E-04
  0.339500010       5.95710007E-04
  0.340000004       4.63938981E-04
  0.340499997       3.29804112E-04
  0.340999991       1.93350628E-04
  0.341500014       5.46263254E-05
  0.342000008      -8.63183013E-05
  0.342500001      -2.29430108E-04
  0.342999995      -3.74653318E-04
  0.343499988      -5.21929411E-04
  0.344000012      -6.71197427E-04
  0.344500005      -8.22393631E-04
  0.344999999      -9.75451432E-04
  0.345499992      -1.13030197E-03
  0.345999986      -1.28687371E-03
  0.346500009      -1.44509261E-03
  0.347000003      -1.60488195E-03
  0.347499996      -1.76616223E-03
  0.347999990      -1.92885217E-03
  0.348500013      -2.09286739E-03
  0.349000007      -2.25812150E-03
  0.349500000      -2.42452580E-03
  0.349999994      -2.59198900E-03
  0.350499988      -2.76041753E-03
  0.351000011      -2.92971544E-03
  0.351500005      -3.09978519E-03
  0.351999998      -3.27052642E-03
  0.352499992      -3.44183692E-03
  0.352999985      -3.61361331E-03
  0.353500009      -3.78574873E-03
  0.354000002      -3.95813584E-03
  0.354499996      -4.13066428E-03
  0.354999989      -4.30322299E-03
  0.355500013      -4.47569881E-03
  0.356000006      -4.64797672E-03
  0.356500000      -4.81993984E-03
  0.356999993      -4.99147084E-03
  0.357499987      -5.16245142E-03
  0.358000010      -5.33275958E-03
  0.358500004      -5.50227519E-03
  0.358999997      -5.67087531E-03
  0.359499991      -5.83843607E-03
  0.360000014      -6.00483408E-03
  0.360500008      -6.16994360E-03
  0.361000001      -6.33363891E-03
  0.361499995      -6.49579428E-03
  0.361999989      -6.65628351E-03
  0.362500012      -6.81497902E-03
  0.363000005      -6.97175460E-03
  0.363499999      -7.12648313E-03
  0.363999993      -7.27903750E-03
  0.364499986      -7.42929056E-03
  0.365000010      -7.57711614E-03
  0.365500003      -7.72238942E-03
  0.365999997      -7.86498562E-03
  0.366499990      -8.00477806E-03
  0.367000014      -8.14164337E-03
  0.367500007      -8.27545859E-03
  0.368000001      -8.40610266E-03
  0.368499994      -8.53345450E-03
  0.368999988      -8.65739584E-03
  0.369500011      -8.77780747E-03
  0.370000005      -8.89457483E-03
  0.370499998      -9.00758244E-03
  0.370999992      -9.11671668E-03
  0.371499985      -9.22186859E-03
  0.372000009      -9.32292920E-03
  0.372500002      -9.41979233E-03
  0.372999996      -9.51235369E-03
  0.373499990      -9.60051268E-03
  0.374000013      -9.68417060E-03
  0.374500006      -9.76323057E-03
  0.375000000      -9.83759854E-03
  0.375499994      -9.90718603E-03
  0.375999987      -9.97190643E-03
  0.376500010      -1.00316750E-02
  0.377000004      -1.00864107E-02
  0.377499998      -1.01360371E-02
  0.377999991      -1.01804808E-02
  0.378500015      -1.02196718E-02
  0.379000008      -1.02535449E-02
  0.379500002      -1.02820396E-02
  0.379999995      -1.03050964E-02
  0.380499989      -1.03226621E-02
  0.381000012      -1.03346882E-02
  0.381500006      -1.03411283E-02
  0.381999999      -1.03419432E-02
  0.382499993      -1.03370966E-02
  0.382999986      -1.03265569E-02
  0.383500010      -1.03102969E-02
  0.384000003      -1.02882935E-02
  0.384499997      -1.02605317E-02
  0.384999990      -1.02269957E-02
  0.385500014      -1.01876799E-02
  0.386000007      -1.01425806E-02
  0.386500001      -1.00916997E-02
  0.386999995      -1.00350436E-02
  0.387499988      -9.97262448E-03
  0.388000011      -9.90446005E-03
  0.388500005      -9.83057264E-03
  0.388999999      -9.75098833E-03
  0.389499992      -9.66574065E-03
  0.389999986      -9.57486778E-03
  0.390500009      -9.47841071E-03
  0.391000003      -9.37641785E-03
  0.391499996      -9.26894415E-03
  0.391999990      -9.15604830E-03
  0.392500013      -9.03779082E-03
  0.393000007      -8.91424343E-03
  0.393500000      -8.78547784E-03
  0.393999994      -8.65157507E-03
  0.394499987      -8.51261709E-03
  0.395000011      -8.36869515E-03
  0.395500004      -8.21990147E-03
  0.395999998      -8.06633383E-03
  0.396499991      -7.90809840E-03
  0.397000015      -7.74530182E-03
  0.397500008      -7.57805631E-03
  0.398000002      -7.40647968E-03
  0.398499995      -7.23069347E-03
  0.398999989      -7.05082295E-03
  0.399500012      -6.86699897E-03
  0.400000006      -6.67935424E-03
  0.400500000      -6.48802798E-03
  0.400999993      -6.29316270E-03
  0.401499987      -6.09490275E-03
  0.402000010      -5.89339854E-03
  0.402500004      -5.68880234E-03
  0.402999997      -5.48127107E-03
  0.403499991      -5.27096353E-03
  0.404000014      -5.05804224E-03
  0.404500008      -4.84267436E-03
  0.405000001      -4.62502660E-03
  0.405499995      -4.40527173E-03
  0.405999988      -4.18358250E-03
  0.406500012      -3.96013586E-03
  0.407000005      -3.73510993E-03
  0.407499999      -3.50868539E-03
  0.407999992      -3.28104477E-03
  0.408499986      -3.05237202E-03
  0.409000009      -2.82285316E-03
  0.409500003      -2.59267492E-03
  0.409999996      -2.36202567E-03
  0.410499990      -2.13109399E-03
  0.411000013      -1.90006965E-03
  0.411500007      -1.66914216E-03
  0.412000000      -1.43850199E-03
  0.412499994      -1.20833947E-03
  0.412999988      -9.78844357E-04
  0.413500011      -7.50206236E-04
  0.414000005      -5.22614107E-04
  0.414499998      -2.96256330E-04
  0.414999992      -7.13203190E-05
  0.415499985       1.52007691E-04
  0.416000009       3.73542600E-04
  0.416500002       5.93100965E-04
  0.416999996       8.10500875E-04
  0.417499989       1.02556217E-03
  0.418000013       1.23810675E-03
  0.418500006       1.44795864E-03
  0.419000000       1.65494415E-03
  0.419499993       1.85889250E-03
  0.419999987       2.05963524E-03
  0.420500010       2.25700671E-03
  0.421000004       2.45084544E-03
  0.421499997       2.64099170E-03
  0.421999991       2.82729068E-03
  0.422500014       3.00959009E-03
  0.423000008       3.18774302E-03
  0.423500001       3.36160557E-03
  0.423999995       3.53103853E-03
  0.424499989       3.69590614E-03
  0.425000012       3.85607849E-03
  0.425500005       4.01142985E-03
  0.425999999       4.16183891E-03
  0.426499993       4.30719042E-03
  0.426999986       4.44737310E-03
  0.427500010       4.58228076E-03
  0.428000003       4.71181329E-03