   0.00000000      -4.20681545E-06
   5.00000024E-04  -3.91137155E-06
   1.00000005E-03  -3.06801030E-06
   1.50000001E-03  -1.78244375E-06
   2.00000009E-03  -2.20142255E-07
   2.49999994E-03   1.41198666E-06
   3.00000003E-03   2.88904289E-06
   3.50000011E-03   3.99426744E-06
   4.00000019E-03   4.54512747E-06
   4.49999981E-03   4.41651127E-06
   4.99999989E-03   3.55844031E-06
   5.49999997E-03   2.00608838E-06
   6.00000005E-03  -1.19305923E-07
   6.50000013E-03  -2.61925538E-06
   7.00000022E-03  -5.23624567E-06
   7.49999983E-03  -7.67997972E-06
   8.00000038E-03  -9.65948584E-06
   8.50000046E-03  -1.09181383E-05
   8.99999961E-03  -1.12681100E-05
   9.49999969E-03  -1.06207444E-05
   9.99999978E-03  -9.00925716E-06
   1.04999999E-02  -6.60076512E-06
   1.09999999E-02  -3.69546183E-06
   1.15000000E-02  -7.11643395E-07
   1.20000001E-02   1.84337057E-06
   1.25000002E-02   3.41516579E-06
   1.30000003E-02   3.45422950E-06
   1.35000004E-02   1.47457934E-06
   1.40000004E-02  -2.88598017E-06
   1.44999996E-02  -9.80911864E-06
   1.49999997E-02  -1.92481639E-05
   1.54999997E-02  -3.08944473E-05
   1.60000008E-02  -4.41625889E-05
   1.64999999E-02  -5.81975255E-05
   1.70000009E-02  -7.19058298E-05
   1.75000001E-02  -8.40109133E-05
   1.79999992E-02  -9.31305040E-05
   1.85000002E-02  -9.78727403E-05
   1.89999994E-02  -9.69451285E-05
   1.95000004E-02  -8.92693861E-05
   1.99999996E-02  -7.40942924E-05
   2.05000006E-02  -5.10971295E-05
   2.09999997E-02  -2.04661555E-05
   2.15000007E-02   1.70451003E-05
   2.19999999E-02   6.00972780E-05
   2.25000009E-02   1.06783649E-04
   2.30000000E-02   1.54690293E-04
   2.34999992E-02   2.00996306E-04
   2.40000002E-02   2.42612790E-04
   2.44999994E-02   2.76351959E-04
   2.50000004E-02   2.99120496E-04
   2.54999995E-02   3.08123825E-04
   2.60000005E-02   3.01069696E-04
   2.64999997E-02   2.76357925E-04
   2.70000007E-02   2.33242492E-04
   2.74999999E-02   1.71953536E-04
   2.80000009E-02   9.37687873E-05
   2.85000000E-02   1.02643094E-06
   2.89999992E-02  -1.02926555E-04
   2.95000002E-02  -2.13850275E-04
   2.99999993E-02  -3.26789363E-04
   3.05000003E-02  -4.36305651E-04
   3.09999995E-02  -5.36755135E-04
   3.15000005E-02  -6.22593332E-04
   3.20000015E-02  -6.88696047E-04
   3.24999988E-02  -7.30671338E-04
   3.29999998E-02  -7.45150668E-04
   3.35000008E-02  -7.30035012E-04
   3.40000018E-02  -6.84681290E-04
   3.44999991E-02  -6.10017683E-04
   3.50000001E-02  -5.08572150E-04
   3.55000012E-02  -3.84415791E-04
   3.59999985E-02  -2.43015049E-04
   3.64999995E-02  -9.09989976E-05
   3.70000005E-02   6.41452571E-05
   3.75000015E-02   2.14439351E-04
   3.79999988E-02   3.51817143E-04
   3.84999998E-02   4.68552578E-04
   3.90000008E-02   5.57677762E-04
   3.95000018E-02   6.13374868E-04
   3.99999991E-02   6.31316972E-04
   4.05000001E-02   6.08936243E-04
   4.10000011E-02   5.45602234E-04
   4.14999984E-02   4.42701916E-04
   4.19999994E-02   3.03609850E-04
   4.25000004E-02   1.33549955E-04
   4.30000015E-02  -6.06429458E-05
   4.34999987E-02  -2.70855526E-04
   4.39999998E-02  -4.88098303E-04
   4.45000008E-02  -7.02966354E-04
   4.50000018E-02  -9.06122150E-04
   4.54999991E-02  -1.08878501E-03
   4.60000001E-02  -1.24319061E-03
   4.65000011E-02  -1.36300479E-03
   4.69999984E-02  -1.44365767E-03
   4.74999994E-02  -1.48258824E-03
   4.80000004E-02  -1.47938111E-03
   4.85000014E-02  -1.43579615E-03
   4.89999987E-02  -1.35566632E-03
   4.94999997E-02  -1.24470133E-03
   5.00000007E-02  -1.11018564E-03
   5.05000018E-02  -9.60595615E-04
   5.09999990E-02  -8.05152114E-04
   5.15000001E-02  -6.53348397E-04
   5.20000011E-02  -5.14459389E-04
   5.24999984E-02  -3.97074065E-04
   5.29999994E-02  -3.08670744E-04
   5.35000004E-02  -2.55257532E-04
   5.40000014E-02  -2.41109607E-04
   5.44999987E-02  -2.68587552E-04
   5.49999997E-02  -3.38092650E-04
   5.55000007E-02  -4.48085106E-04
   5.60000017E-02  -5.95263438E-04
   5.64999990E-02  -7.74801651E-04
   5.70000000E-02  -9.80657642E-04
   5.75000010E-02  -1.20598136E-03
   5.79999983E-02  -1.44351937E-03
   5.84999993E-02  -1.68604124E-03
   5.90000004E-02  -1.92675984E-03
   5.95000014E-02  -2.15971121E-03
   5.99999987E-02  -2.38005607E-03
   6.04999997E-02  -2.58436101E-03
   6.10000007E-02  -2.77070515E-03
   6.15000017E-02  -2.93878792E-03
   6.19999990E-02  -3.08988290E-03
   6.25000000E-02  -3.22670140E-03
   6.30000010E-02  -3.35322251E-03
   6.35000020E-02  -3.47439037E-03
   6.40000030E-02  -3.59584694E-03
   6.44999966E-02  -3.72352498E-03
   6.49999976E-02  -3.86336632E-03
   6.54999986E-02  -4.02094843E-03
   6.59999996E-02  -4.20118170E-03
   6.65000007E-02  -4.40807687E-03
   6.70000017E-02  -4.64456389E-03
   6.75000027E-02  -4.91236569E-03
   6.80000037E-02  -5.21196704E-03
   6.84999973E-02  -5.54266199E-03
   6.89999983E-02  -5.90270245E-03
   6.94999993E-02  -6.28942717E-03
   7.00000003E-02  -6.69953227E-03
   7.05000013E-02  -7.12937582E-03
   7.10000023E-02  -7.57514453E-03
   7.15000033E-02  -8.03330261E-03
   7.19999969E-02  -8.50078184E-03
   7.24999979E-02  -8.97520036E-03
   7.29999989E-02  -9.45509318E-03
   7.34999999E-02  -9.94010828E-03
   7.40000010E-02  -1.04309842E-02
   7.45000020E-02  -1.09296301E-02
   7.50000030E-02  -1.14390608E-02
   7.54999965E-02  -1.19633460E-02
   7.59999976E-02  -1.25073465E-02
   7.64999986E-02  -1.30766202E-02
   7.69999996E-02  -1.36771705E-02
   7.75000006E-02  -1.43151954E-02
   7.80000016E-02  -1.49968704E-02
   7.85000026E-02  -1.57281104E-02
   7.90000036E-02  -1.65144503E-02
   7.94999972E-02  -1.73607320E-02
   7.99999982E-02  -1.82711836E-02
   8.04999992E-02  -1.92491394E-02
   8.10000002E-02  -2.02972256E-02
   8.15000013E-02  -2.14171894E-02
   8.20000023E-02  -2.26102248E-02
   8.25000033E-02  -2.38767099E-02
   8.29999968E-02  -2.52167080E-02
   8.34999979E-02  -2.66298987E-02
   8.39999989E-02  -2.81159393E-02
   8.44999999E-02  -2.96742469E-02
   8.50000009E-02  -3.13048586E-02
   8.55000019E-02  -3.30076329E-02
   8.60000029E-02  -3.47833671E-02
   8.64999965E-02  -3.66331153E-02
   8.69999975E-02  -3.85587104E-02
   8.74999985E-02  -4.05625254E-02
   8.79999995E-02  -4.26479355E-02
   8.85000005E-02  -4.48186472E-02
   8.90000015E-02  -4.70792465E-02
   8.95000026E-02  -4.94349003E-02
   9.00000036E-02  -5.18913083E-02
   9.04999971E-02  -5.44546619E-02
   9.09999982E-02  -5.71313426E-02
   9.14999992E-02  -5.99286444E-02
   9.20000002E-02  -6.28534108E-02
   9.25000012E-02  -6.59131482E-02
   9.30000022E-02  -6.91156313E-02
   9.35000032E-02  -7.24684298E-02
   9.39999968E-02  -7.59793967E-02
   9.44999978E-02  -7.96565413E-02
   9.49999988E-02  -8.35077688E-02
   9.54999998E-02  -8.75414461E-02
   9.60000008E-02  -9.17658731E-02
   9.65000018E-02  -9.61893648E-02
   9.70000029E-02 -0.100820452    
   9.74999964E-02 -0.105667830    
   9.79999974E-02 -0.110740557    
   9.84999985E-02 -0.116047688    
   9.89999995E-02 -0.121599086    
   9.95000005E-02 -0.127404138    
  0.100000001     -0.133472711    
  0.100500003     -0.139815658    
  0.101000004     -0.146443412    
  0.101499997     -0.153366446    
  0.101999998     -0.160597488    
  0.102499999     -0.168147638    
  0.103000000     -0.176029205    
  0.103500001     -0.184255317    
  0.104000002     -0.192838788    
  0.104500003     -0.201793700    
  0.104999997     -0.211134255    
  0.105499998     -0.220874593    
  0.105999999     -0.231031150    
  0.106500000     -0.241618797    
  0.107000001     -0.252655268    
  0.107500002     -0.264157236    
  0.108000003     -0.276141316    
  0.108499996     -0.288627744    
  0.108999997     -0.301633835    
  0.109499998     -0.315178186    
  0.109999999     -0.329283118    
  0.110500000     -0.343967676    
  0.111000001     -0.359252632    
  0.111500002     -0.375161052    
  0.112000003     -0.391716093    
  0.112499997     -0.408939034    
  0.112999998     -0.426855028    
  0.113499999     -0.445491791    
  0.114000000     -0.464871347    
  0.114500001     -0.485021561    
  0.115000002     -0.505971074    
  0.115500003     -0.527748287    
  0.115999997     -0.550384164    
  0.116499998     -0.573907673    
  0.116999999     -0.598352253    
  0.117500000     -0.623749137    
  0.118000001     -0.650137782    
  0.118500002     -0.677550018    
  0.119000003     -0.706022203    
  0.119499996     -0.735593796    
  0.119999997     -0.766300917    
  0.120499998     -0.798182189    
  0.120999999     -0.831278801    
  0.121500000     -0.865631938    
  0.122000001     -0.901279807    
  0.122500002     -0.938265800    
  0.123000003     -0.976633132    
  0.123499997      -1.01642406    
  0.123999998      -1.05768168    
  0.124499999      -1.10045540    
  0.125000000      -1.14478493    
  0.125499994      -1.19072163    
  0.126000002      -1.23831069    
  0.126499996      -1.28759909    
  0.127000004      -1.33863986    
  0.127499998      -1.39149070    
  0.128000006      -1.44619513    
  0.128500000      -1.50281596    
  0.128999993      -1.56140494    
  0.129500002      -1.62201834    
  0.129999995      -1.68472421    
  0.130500004      -1.74958003    
  0.130999997      -1.81665242    
  0.131500006      -1.88600147    
  0.131999999      -1.95768976    
  0.132499993      -2.03179455    
  0.133000001      -2.10837770    
  0.133499995      -2.18752027    
  0.134000003      -2.26927829    
  0.134499997      -2.35372734    
  0.135000005      -2.44095039    
  0.135499999      -2.53100872    
  0.136000007      -2.62398672    
  0.136500001      -2.71994901    
  0.136999995      -2.81898117    
  0.137500003      -2.92115498    
  0.137999997      -3.02654195    
  0.138500005      -3.13521838    
  0.138999999      -3.24728298    
  0.139500007      -3.36279702    
  0.140000001      -3.48184037    
  0.140499994      -3.60450721    
  0.141000003      -3.73087645    
  0.141499996      -3.86103463    
  0.142000005      -3.99506593    
  0.142499998      -4.13305759    
  0.143000007      -4.27511168    
  0.143500000      -4.42129183    
  0.143999994      -4.57171011    
  0.144500002      -4.72643232    
  0.144999996      -4.88558149    
  0.145500004      -5.04921818    
  0.145999998      -5.21746731    
  0.146500006      -5.39036274    
  0.147000000      -5.56806183    
  0.147499993      -5.75063610    
  0.148000002      -5.93814754    
  0.148499995      -6.13072205    
  0.149000004      -6.32843256    
  0.149499997      -6.53140259    
  0.150000006      -6.73964882    
  0.150500000      -6.95329762    
  0.150999993      -7.17248058    
  0.151500002      -7.39722347    
  0.151999995      -7.62765503    
  0.152500004      -7.86381865    
  0.152999997      -8.10581684    
  0.153500006      -8.35372162    
  0.153999999      -8.60762882    
  0.154499993      -8.86763287    
  0.155000001      -9.13378716    
  0.155499995      -9.40616798    
  0.156000003      -9.68483353    
  0.156499997      -9.96984005    
  0.157000005      -10.2613153    
  0.157499999      -10.5593357    
  0.158000007      -10.8638916    
  0.158500001      -11.1751385    
  0.158999994      -11.4930630    
  0.159500003      -11.8177032    
  0.159999996      -12.1491652    
  0.160500005      -12.4874601    
  0.160999998      -12.8326721    
  0.161500007      -13.1847515    
  0.162000000      -13.5437994    
  0.162499994      -13.9097862    
  0.163000003      -14.2828054    
  0.163499996      -14.6628904    
  0.164000005      -15.0499020    
  0.164499998      -15.4440479    
  0.165000007      -15.8451777    
  0.165500000      -16.2533665    
  0.165999994      -16.6685143    
  0.166500002      -17.0907402    
  0.166999996      -17.5198364    
  0.167500004      -17.9558258    
  0.167999998      -18.3986855    
  0.168500006      -18.8484135    
  0.169000000      -19.3047791    
  0.169499993      -19.7677479    
  0.170000002      -20.2373428    
  0.170499995      -20.7134590    
  0.171000004      -21.1958942    
  0.171499997      -21.6845798    
  0.172000006      -22.1794109    
  0.172499999      -22.6803265    
  0.172999993      -23.1869717    
  0.173500001      -23.6993484    
  0.173999995      -24.2172050    
  0.174500003      -24.7404995    
  0.174999997      -25.2688389    
  0.175500005      -25.8022385    
  0.175999999      -26.3404217    
  0.176499993      -26.8830528    
  0.177000001      -27.4299126    
  0.177499995      -27.9807281    
  0.178000003      -28.5354691    
  0.178499997      -29.0934696    
  0.179000005      -29.6546497    
  0.179499999      -30.2185402    
  0.180000007      -30.7849216    
  0.180500001      -31.3532543    
  0.180999994      -31.9233990    
  0.181500003      -32.4948502    
  0.181999996      -33.0672760    
  0.182500005      -33.6401215    
  0.182999998      -34.2131348    
  0.183500007      -34.7857361    
  0.184000000      -35.3573570    
  0.184499994      -35.9278183    
  0.185000002      -36.4962807    
  0.185499996      -37.0622444    
  0.186000004      -37.6254044    
  0.186499998      -38.1849480    
  0.187000006      -38.7404213    
  0.187500000      -39.2910614    
  0.187999994      -39.8364105    
  0.188500002      -40.3755836    
  0.188999996      -40.9082336    
  0.189500004      -41.4332809    
  0.189999998      -41.9502525    
  0.190500006      -42.4585915    
  0.191000000      -42.9571991    
  0.191499993      -43.4455643    
  0.192000002      -43.9229050    
  0.192499995      -44.3879662    
  0.193000004      -44.8401794    
  0.193499997      -45.2790947    
  0.194000006      -45.7032509    
  0.194499999      -46.1122704    
  0.194999993      -46.5050659    
  0.195500001      -46.8803406    
  0.195999995      -47.2377243    
  0.196500003      -47.5758553    
  0.196999997      -47.8942299    
  0.197500005      -48.1917152    
  0.197999999      -48.4669647    
  0.198500007      -48.7193069    
  0.199000001      -48.9481201    
  0.199499995      -49.1519203    
  0.200000003      -49.3288956    
  0.200499997      -49.4789429    
  0.201000005      -49.6005173    
  0.201499999      -49.6926918    
  0.202000007      -49.7538986    
  0.202500001      -49.7842331    
  0.202999994      -49.7812195    
  0.203500003      -49.7444267    
  0.203999996      -49.6722069    
  0.204500005      -49.5639954    
  0.204999998      -49.4174919    
  0.205500007      -49.2325630    
  0.206000000      -49.0081100    
  0.206499994      -48.7418480    
  0.207000002      -48.4335213    
  0.207499996      -48.0816994    
  0.208000004      -47.6849365    
  0.208499998      -47.2423820    
  0.209000006      -46.7528648    
  0.209500000      -46.2153091    
  0.209999993      -45.6287193    
  0.210500002      -44.9915352    
  0.210999995      -44.3026695    
  0.211500004      -43.5608368    
  0.211999997      -42.7649994    
  0.212500006      -41.9135094    
  0.213000000      -41.0062866    
  0.213499993      -40.0413361    
  0.214000002      -39.0180588    
  0.214499995      -37.9349747    
  0.215000004      -36.7918015    
  0.215499997      -35.5873795    
  0.216000006      -34.3193436    
  0.216499999      -32.9887962    
  0.216999993      -31.5936012    
  0.217500001      -30.1334610    
  0.217999995      -28.6076183    
  0.218500003      -27.0144424    
  0.218999997      -25.3551254    
  0.219500005      -23.6260109    
  0.219999999      -21.8273525    
  0.220500007      -19.9599571    
  0.221000001      -18.0215206    
  0.221499994      -16.0116692    
  0.222000003      -13.9300337    
  0.222499996      -11.7768230    
  0.223000005      -9.54961777    
  0.223499998      -7.25024128    
  0.224000007      -4.87774277    
  0.224500000      -2.43186140    
  0.224999994       8.72241706E-02
  0.225500003       2.68094993    
  0.225999996       5.34828901    
  0.226500005       8.08993816    
  0.226999998       10.9062757    
  0.227500007       13.7953377    
  0.228000000       16.7574577    
  0.228499994       19.7926846    
  0.229000002       22.9010220    
  0.229499996       26.0804043    
  0.230000004       29.3327637    
  0.230499998       32.6557121    
  0.231000006       36.0479546    
  0.231500000       39.5108261    
  0.231999993       43.0419884    
  0.232500002       46.6416855    
  0.232999995       50.3080940    
  0.233500004       54.0398598    
  0.233999997       57.8355789    
  0.234500006       61.6948624    
  0.234999999       65.6140594    
  0.235499993       69.5942841    
  0.236000001       73.6319656    
  0.236499995       77.7263947    
  0.237000003       81.8751831    
  0.237499997       86.0759201    
  0.238000005       90.3275604    
  0.238499999       94.6269150    
  0.238999993       98.9716644    
  0.239500001       103.361015    
  0.239999995       107.791687    
  0.240500003       112.260880    
  0.240999997       116.766273    
  0.241500005       121.306602    
  0.241999999       125.877991    
  0.242500007       130.475815    
  0.243000001       135.098816    
  0.243499994       139.743790    
  0.244000003       144.407455    
  0.244499996       149.085129    
  0.245000005       153.776505    
  0.245499998       158.474030    
  0.246000007       163.175858    
  0.246500000       167.877609    
  0.246999994       172.575928    
  0.247500002       177.267517    
  0.247999996       181.945465    
  0.248500004       186.607620    
  0.248999998       191.249634    
  0.249500006       195.867630    
  0.250000000       200.457397    
  0.250499994       205.014603    
  0.250999987       209.533905    
  0.251500010       214.010315    
  0.252000004       218.437851    
  0.252499998       222.814270    
  0.252999991       227.135040    
  0.253500015       231.394531    
  0.254000008       235.588470    
  0.254500002       239.712265    
  0.254999995       243.760147    
  0.255499989       247.727310    
  0.256000012       251.608490    
  0.256500006       255.398560    
  0.256999999       259.093292    
  0.257499993       262.686127    
  0.257999986       266.174286    
  0.258500010       269.550690    
  0.259000003       272.810028    
  0.259499997       275.947510    
  0.259999990       278.958923    
  0.260500014       281.838409    
  0.261000007       284.580261    
  0.261500001       287.180359    
  0.261999995       289.632660    
  0.262499988       291.932770    
  0.263000011       294.074738    
  0.263500005       296.054443    
  0.263999999       297.866730    
  0.264499992       299.508179    
  0.264999986       300.971710    
  0.265500009       302.253967    
  0.266000003       303.350952    
  0.266499996       304.257568    
  0.266999990       304.968842    
  0.267500013       305.481232    
  0.268000007       305.790649    
  0.268500000       305.893860    
  0.268999994       305.785248    
  0.269499987       305.462280    
  0.270000011       304.920044    
  0.270500004       304.156616    
  0.270999998       303.167633    
  0.271499991       301.949829    
  0.272000015       300.499847    
  0.272500008       298.814575    
  0.273000002       296.891876    
  0.273499995       294.728516    
  0.273999989       292.322510    
  0.274500012       289.670898    
  0.275000006       286.771973    
  0.275500000       283.624268    
  0.275999993       280.226013    
  0.276499987       276.575256    
  0.277000010       272.671082    
  0.277500004       268.513062    
  0.277999997       264.099579    
  0.278499991       259.430084    
  0.279000014       254.505341    
  0.279500008       249.323853    
  0.280000001       243.886795    
  0.280499995       238.194611    
  0.280999988       232.246689    
  0.281500012       226.046234    
  0.282000005       219.592560    
  0.282499999       212.889496    
  0.282999992       205.936722    
  0.283499986       198.737244    
  0.284000009       191.292557    
  0.284500003       183.606079    
  0.284999996       175.681702    
  0.285499990       167.519852    
  0.286000013       159.126007    
  0.286500007       150.503433    
  0.287000000       141.654434    
  0.287499994       132.585815    
  0.287999988       123.299515    
  0.288500011       113.800858    
  0.289000005       104.096306    
  0.289499998       94.1896515    
  0.289999992       84.0861816    
  0.290499985       73.7930527    
  0.291000009       63.3145294    
  0.291500002       52.6587868    
  0.291999996       41.8290825    
  0.292499989       30.8359909    
  0.293000013       19.6831512    
  0.293500006       8.38123322    
  0.294000000      -3.06703830    
  0.294499993      -14.6502161    
  0.294999987      -26.3619423    
  0.295500010      -38.1923103    
  0.296000004      -50.1342964    
  0.296499997      -62.1788216    
  0.296999991      -74.3190765    
  0.297500014      -86.5432434    
  0.298000008      -98.8448181    
  0.298500001      -111.211571    
  0.298999995      -123.638306    
  0.299499989      -136.111725    
  0.300000012      -148.623123    
  0.300500005      -161.160828    
  0.300999999      -173.717102    
  0.301499993      -186.279785    
  0.301999986      -198.838028    
  0.302500010      -211.386429    
  0.303000003      -223.907486    
  0.303499997      -236.394592    
  0.303999990      -248.836121    
  0.304500014      -261.218719    
  0.305000007      -273.536377    
  0.305500001      -285.773926    
  0.305999994      -297.921753    
  0.306499988      -309.971558    
  0.307000011      -321.911804    
  0.307500005      -333.731232    
  0.307999998      -345.418823    
  0.308499992      -356.961853    
  0.308999985      -368.349731    
  0.309500009      -379.570190    
  0.310000002      -390.623474    
  0.310499996      -401.484741    
  0.310999990      -412.150665    
  0.311500013      -422.609406    
  0.312000006      -432.851746    
  0.312500000      -442.868988    
  0.312999994      -452.645630    
  0.313499987      -462.176666    
  0.314000010      -471.450623    
  0.314500004      -480.458832    
  0.314999998      -489.189972    
  0.315499991      -497.635498    
  0.316000015      -505.788116    
  0.316500008      -513.638855    
  0.317000002      -521.180969    
  0.317499995      -528.398560    
  0.317999989      -535.291138    
  0.318500012      -541.852905    
  0.319000006      -548.063232    
  0.319499999      -553.928345    
  0.319999993      -559.438293    
  0.320499986      -564.579102    
  0.321000010      -569.356262    
  0.321500003      -573.758423    
  0.321999997      -577.783203    
  0.322499990      -581.416687    
  0.323000014      -584.661743    
  0.323500007      -587.510254    
  0.324000001      -589.955994    
  0.324499995      -592.000000    
  0.324999988      -593.634399    
  0.325500011      -594.857483    
  0.326000005      -595.670471    
  0.326499999      -596.068787    
  0.326999992      -596.043091    
  0.327499986      -595.603333    
  0.328000009      -594.738831    
  0.328500003      -593.459229    
  0.328999996      -591.755981    
  0.329499990      -589.633240    
  0.330000013      -587.090759    
  0.330500007      -584.126770    
  0.331000000      -580.746338    
  0.331499994      -576.943970    
  0.331999987      -572.730225    
  0.332500011      -568.099121    
  0.333000004      -563.059448    
  0.333499998      -557.610107    
  0.333999991      -551.758545    
  0.334500015      -545.507324    
  0.335000008      -538.858948    
  0.335500002      -531.820312    
  0.335999995      -524.397278    
  0.336499989      -516.593323    
  0.337000012      -508.416138    
  0.337500006      -499.872314    
  0.338000000      -490.973480    
  0.338499993      -481.719543    
  0.338999987      -472.119659    
  0.339500010      -462.186005    
  0.340000004      -451.924774    
  0.340499997      -441.343506    
  0.340999991      -430.451599    
  0.341500014      -419.258911    
  0.342000008      -407.774261    
  0.342500001      -396.007477    
  0.342999995      -383.966125    
  0.343499988      -371.661987    
  0.344000012      -359.103668    
  0.344500005      -346.303284    
  0.344999999      -333.270386    
  0.345499992      -320.017273    
  0.345999986      -306.551605    
  0.346500009      -292.887329    
  0.347000003      -279.034698    
  0.347499996      -265.006592    
  0.347999990      -250.813660    
  0.348500013      -236.469391    
  0.349000007      -221.984283    
  0.349500000      -207.372330    
  0.349999994      -192.645645    
  0.350499988      -177.817184    
  0.351000011      -162.898972    
  0.351500005      -147.904572    
  0.351999998      -132.847229    
  0.352499992      -117.738564    
  0.352999985      -102.594009    
  0.353500009      -87.4240570    
  0.354000002      -72.2422485    
  0.354499996      -57.0612869    
  0.354999989      -41.8948364    
  0.355500013      -26.7550354    
  0.356000006      -11.6541958    
  0.356500000       3.39529395    
  0.356999993       18.3810177    
  0.357499987       33.2918472    
  0.358000010       48.1142807    
  0.358500004       62.8368568    
  0.358999997       77.4484787    
  0.359499991       91.9370575    
  0.360000014       106.291389    
  0.360500008       120.499779    
  0.361000001       134.552048    
  0.361499995       148.436493    
  0.361999989       162.142288    
  0.362500012       175.659454    
  0.363000005       188.978180    
  0.363499999       202.087097    
  0.363999993       214.977966    
  0.364499986       227.641479    
  0.365000010       240.066971    
  0.365500003       252.246964    
  0.365999997       264.171997    
  0.366499990       275.836212    
  0.367000014       287.228760    
  0.367500007       298.343079    
  0.368000001       309.172180    
  0.368499994       319.708984    
  0.368999988       329.948364    
  0.369500011       339.881744    
  0.370000005       349.504333    
  0.370499998       358.811462    
  0.370999992       367.797485    
  0.371499985       376.456573    
  0.372000009       384.784760    
  0.372500002       392.779144    
  0.372999996       400.432343    
  0.373499990       407.745544    
  0.374000013       414.709656    
  0.374500006       421.326904    
  0.375000000       427.593292    
  0.375499994       433.507782    
  0.375999987       439.067719    
  0.376500010       444.274414    
  0.377000004       449.125092    
  0.377499998       453.619629    
  0.377999991       457.757385    
  0.378500015       461.537811    
  0.379000008       464.964508    
  0.379500002       468.039062    
  0.379999995       470.758118    
  0.380499989       473.124786    
  0.381000012       475.143677    
  0.381500006       476.817108    
  0.381999999       478.147736    
  0.382499993       479.138794    
  0.382999986       479.790131    
  0.383500010       480.108948    
  0.384000003       480.098511    
  0.384499997       479.764069    
  0.384999990       479.110657    
  0.385500014       478.138123    
  0.386000007       476.856506    
  0.386500001       475.268829    
  0.386999995       473.378021    
  0.387499988       471.191986    
  0.388000011       468.717102    
  0.388500005       465.956726    
  0.388999999       462.920746    
  0.389499992       459.612854    
  0.389999986       456.040222    
  0.390500009       452.213348    
  0.391000003       448.133759    
  0.391499996       443.814392    
  0.391999990       439.258881    
  0.392500013       434.480042    
  0.393000007       429.480774    
  0.393500000       424.268951    
  0.393999994       418.855011    
  0.394499987       413.246857    
  0.395000011       407.452423    
  0.395500004       401.482574    
  0.395999998       395.340363    
  0.396499991       389.033752    
  0.397000015       382.574982    
  0.397500008       375.972290    
  0.398000002       369.230652    
  0.398499995       362.360046    
  0.398999989       355.367584    
  0.399500012       348.261047    
  0.400000006       341.052094    
  0.400500000       333.741913    
  0.400999993       326.342743    
  0.401499987       318.862122    
  0.402000010       311.311005    
  0.402500004       303.694244    
  0.402999997       296.021271    
  0.403499991       288.298706    
  0.404000014       280.534821    
  0.404500008       272.738953    
  0.405000001       264.915802    
  0.405499995       257.074860    
  0.405999988       249.223572    
  0.406500012       241.368958    
  0.407000005       233.518616    
  0.407499999       225.679199    
  0.407999992       217.855865    
  0.408499986       210.056702    
  0.409000009       202.285751    
  0.409500003       194.551514    
  0.409999996       186.857834    
  0.410499990       179.212982    
  0.411000013       171.619736    
  0.411500007       164.084473    
  0.412000000       156.612579    
  0.412499994       149.207916    
  0.412999988       141.877228    
  0.413500011       134.624496    
  0.414000005       127.453766    
  0.414499998       120.369904    
  0.414999992       113.376717    
  0.415499985       106.477806    
  0.416000009       99.6756744    
  0.416500002       92.9753265    
  0.416999996       86.3798599    
  0.417499989       79.8922119    
  0.418000013       73.5156784    
  0.418500006       67.2517166    
  0.419000000       61.1043282    
  0.419499993       55.0728760    
  0.419999987       49.1601334    
  0.420500010       43.3692017    
  0.421000004       37.6996918    
  0.421499997       32.1529121    
  0.421999991       26.7301903    
  0.422500014       21.4315090    
  0.423000008       16.2578125    
  0.423500001       11.2106104    
  0.423999995       6.28997135    
  0.424499989       1.49476111    
  0.425000012      -3.17314744    
  0.425500005      -7.71479511    
  0.425999999      -12.1314402    
  0.426499993      -16.4218521    
  0.426999986      -20.5881290    
  0.427500010      -24.6305199    
  0.428000003      -28.5496998    