   0.00000000       1.63991433E-06
   5.00000024E-04   1.59099545E-06
   1.00000005E-03   1.38692940E-06
   1.50000001E-03   1.04874891E-06
   2.00000009E-03   6.09212748E-07
   2.49999994E-03   1.07309091E-07
   3.00000003E-03  -4.18405307E-07
   3.50000011E-03  -9.36740491E-07
   4.00000019E-03  -1.43011221E-06
   4.49999981E-03  -1.89912839E-06
   4.99999989E-03  -2.36471419E-06
   5.49999997E-03  -2.86716772E-06
   6.00000005E-03  -3.46189722E-06
   6.50000013E-03  -4.21192999E-06
   7.00000022E-03  -5.17767148E-06
   7.49999983E-03  -6.40480084E-06
   8.00000038E-03  -7.91144885E-06
   8.50000046E-03  -9.67606047E-06
   8.99999961E-03  -1.16274450E-05
   9.49999969E-03  -1.36384424E-05
   9.99999978E-03  -1.55244961E-05
   1.04999999E-02  -1.70480052E-05
   1.09999999E-02  -1.79290691E-05
   1.15000000E-02  -1.78623613E-05
   1.20000001E-02  -1.65396905E-05
   1.25000002E-02  -1.36768849E-05
   1.30000003E-02  -9.04329136E-06
   1.35000004E-02  -2.49156983E-06
   1.40000004E-02   6.01450301E-06
   1.44999996E-02   1.63770274E-05
   1.49999997E-02   2.83481168E-05
   1.54999997E-02   4.15233408E-05
   1.60000008E-02   5.53463688E-05
   1.64999999E-02   6.91251480E-05
   1.70000009E-02   8.20605201E-05
   1.75000001E-02   9.32857074E-05
   1.79999992E-02   1.01915342E-04
   1.85000002E-02   1.07101310E-04
   1.89999994E-02   1.08092048E-04
   1.95000004E-02   1.04291343E-04
   1.99999996E-02   9.53125855E-05
   2.05000006E-02   8.10243000E-05
   2.09999997E-02   6.15825847E-05
   2.15000007E-02   3.74483679E-05
   2.19999999E-02   9.38561243E-06
   2.25000009E-02  -2.15596574E-05
   2.30000000E-02  -5.40996625E-05
   2.34999992E-02  -8.67638155E-05
   2.40000002E-02  -1.17972580E-04
   2.44999994E-02  -1.46123130E-04
   2.50000004E-02  -1.69681254E-04
   2.54999995E-02  -1.87274549E-04
   2.60000005E-02  -1.97780202E-04
   2.64999997E-02  -2.00401468E-04
   2.70000007E-02  -1.94727938E-04
   2.74999999E-02  -1.80774048E-04
   2.80000009E-02  -1.58993033E-04
   2.85000000E-02  -1.30264219E-04
   2.89999992E-02  -9.58531891E-05
   2.95000002E-02  -5.73465077E-05
   2.99999993E-02  -1.65645870E-05
   3.05000003E-02   2.45428455E-05
   3.09999995E-02   6.40119033E-05
   3.15000005E-02   9.99837648E-05
   3.20000015E-02   1.30819171E-04
   3.24999988E-02   1.55202753E-04
   3.29999998E-02   1.72226341E-04
   3.35000008E-02   1.81449475E-04
   3.40000018E-02   1.82929129E-04
   3.44999991E-02   1.77217706E-04
   3.50000001E-02   1.65327918E-04
   3.55000012E-02   1.48666441E-04
   3.59999985E-02   1.28940432E-04
   3.64999995E-02   1.08040978E-04
   3.70000005E-02   8.79130894E-05
   3.75000015E-02   7.04199701E-05
   3.79999988E-02   5.72090503E-05
   3.84999998E-02   4.95923523E-05
   3.90000008E-02   4.84463526E-05
   3.95000018E-02   5.41415611E-05
   3.99999991E-02   6.65047337E-05
   4.05000001E-02   8.48199415E-05
   4.10000011E-02   1.07868073E-04
   4.14999984E-02   1.34003421E-04
   4.19999994E-02   1.61259901E-04
   4.25000004E-02   1.87489582E-04
   4.30000015E-02   2.10512691E-04
   4.34999987E-02   2.28277655E-04
   4.39999998E-02   2.39018991E-04
   4.45000008E-02   2.41399350E-04
   4.50000018E-02   2.34626437E-04
   4.54999991E-02   2.18538393E-04
   4.60000001E-02   1.93649641E-04
   4.65000011E-02   1.61148520E-04
   4.69999984E-02   1.22853118E-04
   4.74999994E-02   8.11184145E-05
   4.80000004E-02   3.87101209E-05
   4.85000014E-02  -1.36330948E-06
   4.89999987E-02  -3.60305021E-05
   4.94999997E-02  -6.23565647E-05
   5.00000007E-02  -7.77360547E-05
   5.05000018E-02  -8.00741836E-05
   5.09999990E-02  -6.79360601E-05
   5.15000001E-02  -4.06638792E-05
   5.20000011E-02   1.55303860E-06
   5.24999984E-02   5.76677994E-05
   5.29999994E-02   1.25807026E-04
   5.35000004E-02   2.03365373E-04
   5.40000014E-02   2.87148519E-04
   5.44999987E-02   3.73557297E-04
   5.49999997E-02   4.58796188E-04
   5.55000007E-02   5.39105560E-04
   5.60000017E-02   6.10998250E-04
   5.64999990E-02   6.71482994E-04
   5.70000000E-02   7.18262454E-04
   5.75000010E-02   7.49887549E-04
   5.79999983E-02   7.65872246E-04
   5.84999993E-02   7.66743498E-04
   5.90000004E-02   7.54029432E-04
   5.95000014E-02   7.30198517E-04
   5.99999987E-02   6.98515389E-04
   6.04999997E-02   6.62867271E-04
   6.10000007E-02   6.27552159E-04
   6.15000017E-02   5.97009901E-04
   6.19999990E-02   5.75582380E-04
   6.25000000E-02   5.67262410E-04
   6.30000010E-02   5.75421611E-04
   6.35000020E-02   6.02656859E-04
   6.40000030E-02   6.50612114E-04
   6.44999966E-02   7.19891454E-04
   6.49999976E-02   8.10025027E-04
   6.54999986E-02   9.19516082E-04
   6.59999996E-02   1.04591204E-03
   6.65000007E-02   1.18601671E-03
   6.70000017E-02   1.33602310E-03
   6.75000027E-02   1.49184035E-03
   6.80000037E-02   1.64927810E-03
   6.84999973E-02   1.80437253E-03
   6.89999983E-02   1.95357995E-03
   6.94999993E-02   2.09407927E-03
   7.00000003E-02   2.22386909E-03
   7.05000013E-02   2.34197383E-03
   7.10000023E-02   2.44844262E-03
   7.15000033E-02   2.54439190E-03
   7.19999969E-02   2.63195229E-03
   7.24999979E-02   2.71407864E-03
   7.29999989E-02   2.79444014E-03
   7.34999999E-02   2.87717301E-03
   7.40000010E-02   2.96663074E-03
   7.45000020E-02   3.06715514E-03
   7.50000030E-02   3.18279420E-03
   7.54999965E-02   3.31707112E-03
   7.59999976E-02   3.47283413E-03
   7.64999986E-02   3.65212536E-03
   7.69999996E-02   3.85601260E-03
   7.75000006E-02   4.08465555E-03
   7.80000016E-02   4.33730055E-03
   7.85000026E-02   4.61237598E-03
   7.90000036E-02   4.90769185E-03
   7.94999972E-02   5.22060506E-03
   7.99999982E-02   5.54817496E-03
   8.04999992E-02   5.88750467E-03
   8.10000002E-02   6.23595342E-03
   8.15000013E-02   6.59132656E-03
   8.20000023E-02   6.95202453E-03
   8.25000033E-02   7.31721241E-03
   8.29999968E-02   7.68704619E-03
   8.34999979E-02   8.06247350E-03
   8.39999989E-02   8.44534300E-03
   8.44999999E-02   8.83836392E-03
   8.50000009E-02   9.24478006E-03
   8.55000019E-02   9.66849551E-03
   8.60000029E-02   1.01136519E-02
   8.64999965E-02   1.05844215E-02
   8.69999975E-02   1.10849617E-02
   8.74999985E-02   1.16191283E-02
   8.79999995E-02   1.21901538E-02
   8.85000005E-02   1.28007894E-02
   8.90000015E-02   1.34529984E-02
   8.95000026E-02   1.41481645E-02
   9.00000036E-02   1.48867285E-02
   9.04999971E-02   1.56688504E-02
   9.09999982E-02   1.64939035E-02
   9.14999992E-02   1.73610151E-02
   9.20000002E-02   1.82690453E-02
   9.25000012E-02   1.92170851E-02
   9.30000022E-02   2.02041864E-02
   9.35000032E-02   2.12297756E-02
   9.39999968E-02   2.22939141E-02
   9.44999978E-02   2.33972725E-02
   9.49999988E-02   2.45410912E-02
   9.54999998E-02   2.57273670E-02
   9.60000008E-02   2.69590411E-02
   9.65000018E-02   2.82393172E-02
   9.70000029E-02   2.95719057E-02
   9.74999964E-02   3.09610795E-02
   9.79999974E-02   3.24111804E-02
   9.84999985E-02   3.39267105E-02
   9.89999995E-02   3.55120450E-02
   9.95000005E-02   3.71713266E-02
  0.100000001       3.89082097E-02
  0.100500003       4.07258905E-02
  0.101000004       4.26273867E-02
  0.101499997       4.46157344E-02
  0.101999998       4.66925651E-02
  0.102499999       4.88597080E-02
  0.103000000       5.11193834E-02
  0.103500001       5.34736030E-02
  0.104000002       5.59242144E-02
  0.104500003       5.84743023E-02
  0.104999997       6.11265115E-02
  0.105499998       6.38846308E-02
  0.105999999       6.67532682E-02
  0.106500000       6.97376132E-02
  0.107000001       7.28432462E-02
  0.107500002       7.60763660E-02
  0.108000003       7.94453174E-02
  0.108499996       8.29564705E-02
  0.108999997       8.66182521E-02
  0.109499998       9.04383808E-02
  0.109999999       9.44242030E-02
  0.110500000       9.85827371E-02
  0.111000001      0.102921389    
  0.111500002      0.107445963    
  0.112000003      0.112161674    
  0.112499997      0.117074043    
  0.112999998      0.122185938    
  0.113499999      0.127502382    
  0.114000000      0.133026332    
  0.114500001      0.138761282    
  0.115000002      0.144710109    
  0.115500003      0.150877014    
  0.115999997      0.157265708    
  0.116499998      0.163884968    
  0.116999999      0.170737654    
  0.117500000      0.177833274    
  0.118000001      0.185180724    
  0.118500002      0.192790493    
  0.119000003      0.200674191    
  0.119499996      0.208845228    
  0.119999997      0.217318058    
  0.120499998      0.226109520    
  0.120999999      0.235230625    
  0.121500000      0.244700298    
  0.122000001      0.254533648    
  0.122500002      0.264745414    
  0.123000003      0.275348067    
  0.123499997      0.286356509    
  0.123999998      0.297783196    
  0.124499999      0.309639722    
  0.125000000      0.321934700    
  0.125499994      0.334677458    
  0.126000002      0.347878158    
  0.126499996      0.361541808    
  0.127000004      0.375677466    
  0.127499998      0.390293717    
  0.128000006      0.405399799    
  0.128500000      0.420999527    
  0.128999993      0.437109560    
  0.129500002      0.453738064    
  0.129999995      0.470899791    
  0.130500004      0.488610804    
  0.130999997      0.506890535    
  0.131500006      0.525752366    
  0.131999999      0.545224667    
  0.132499993      0.565325618    
  0.133000001      0.586080015    
  0.133499995      0.607517481    
  0.134000003      0.629655361    
  0.134499997      0.652521133    
  0.135000005      0.676139653    
  0.135499999      0.700531960    
  0.136000007      0.725722790    
  0.136500001      0.751738071    
  0.136999995      0.778592527    
  0.137500003      0.806303144    
  0.137999997      0.834882975    
  0.138500005      0.864349544    
  0.138999999      0.894714713    
  0.139500007      0.925999939    
  0.140000001      0.958214998    
  0.140499994      0.991368532    
  0.141000003       1.02548265    
  0.141499996       1.06056440    
  0.142000005       1.09664571    
  0.142499998       1.13372910    
  0.143000007       1.17184055    
  0.143500000       1.21100378    
  0.143999994       1.25124240    
  0.144500002       1.29258227    
  0.144999996       1.33505797    
  0.145500004       1.37870085    
  0.145999998       1.42352355    
  0.146500006       1.46958363    
  0.147000000       1.51689136    
  0.147499993       1.56548452    
  0.148000002       1.61540997    
  0.148499995       1.66667855    
  0.149000004       1.71930504    
  0.149499997       1.77333403    
  0.150000006       1.82878077    
  0.150500000       1.88567305    
  0.150999993       1.94401646    
  0.151500002       2.00383234    
  0.151999995       2.06515145    
  0.152500004       2.12796402    
  0.152999997       2.19228911    
  0.153500006       2.25815988    
  0.153999999       2.32557917    
  0.154499993       2.39457107    
  0.155000001       2.46512985    
  0.155499995       2.53728414    
  0.156000003       2.61105132    
  0.156499997       2.68643475    
  0.157000005       2.76346350    
  0.157499999       2.84216952    
  0.158000007       2.92256737    
  0.158500001       3.00467896    
  0.158999994       3.08854628    
  0.159500003       3.17412019    
  0.159999996       3.26147962    
  0.160500005       3.35065651    
  0.160999998       3.44159532    
  0.161500007       3.53433681    
  0.162000000       3.62890434    
  0.162499994       3.72528791    
  0.163000003       3.82352090    
  0.163499996       3.92359304    
  0.164000005       4.02551508    
  0.164499998       4.12925959    
  0.165000007       4.23484325    
  0.165500000       4.34228277    
  0.165999994       4.45155287    
  0.166500002       4.56264353    
  0.166999996       4.67554903    
  0.167500004       4.79024076    
  0.167999998       4.90672779    
  0.168500006       5.02496862    
  0.169000000       5.14495373    
  0.169499993       5.26672745    
  0.170000002       5.39018011    
  0.170499995       5.51534653    
  0.171000004       5.64218283    
  0.171499997       5.77065849    
  0.172000006       5.90075350    
  0.172499999       6.03247261    
  0.172999993       6.16570663    
  0.173500001       6.30058050    
  0.173999995       6.43688488    
  0.174500003       6.57468176    
  0.174999997       6.71380043    
  0.175500005       6.85427904    
  0.175999999       6.99602032    
  0.176499993       7.13901758    
  0.177000001       7.28325415    
  0.177499995       7.42857218    
  0.178000003       7.57489634    
  0.178499997       7.72213221    
  0.179000005       7.87017345    
  0.179499999       8.01909065    
  0.180000007       8.16862679    
  0.180500001       8.31870842    
  0.180999994       8.46925831    
  0.181500003       8.62022591    
  0.181999996       8.77155876    
  0.182500005       8.92307949    
  0.182999998       9.07463455    
  0.183500007       9.22625637    
  0.184000000       9.37774754    
  0.184499994       9.52899361    
  0.185000002       9.67992687    
  0.185499996       9.83041096    
  0.186000004       9.98024559    
  0.186499998       10.1294832    
  0.187000006       10.2776995    
  0.187500000       10.4248753    
  0.187999994       10.5708656    
  0.188500002       10.7154980    
  0.188999996       10.8585968    
  0.189500004       10.9999838    
  0.189999998       11.1394243    
  0.190500006       11.2767334    
  0.191000000       11.4117355    
  0.191499993       11.5441484    
  0.192000002       11.6737604    
  0.192499995       11.8003445    
  0.193000004       11.9237032    
  0.193499997       12.0434341    
  0.194000006       12.1595535    
  0.194499999       12.2717810    
  0.194999993       12.3798866    
  0.195500001       12.4837599    
  0.195999995       12.5827618    
  0.196500003       12.6771612    
  0.196999997       12.7666359    
  0.197500005       12.8506565    
  0.197999999       12.9294157    
  0.198500007       13.0025969    
  0.199000001       13.0698242    
  0.199499995       13.1308613    
  0.200000003       13.1852980    
  0.200499997       13.2333107    
  0.201000005       13.2741861    
  0.201499999       13.3074570    
  0.202000007       13.3330870    
  0.202500001       13.3507891    
  0.202999994       13.3600750    
  0.203500003       13.3603287    
  0.203999996       13.3515968    
  0.204500005       13.3331890    
  0.204999998       13.3047724    
  0.205500007       13.2663269    
  0.206000000       13.2173681    
  0.206499994       13.1574707    
  0.207000002       13.0865641    
  0.207499996       13.0041475    
  0.208000004       12.9100294    
  0.208499998       12.8039389    
  0.209000006       12.6858692    
  0.209500000       12.5552664    
  0.209999993       12.4122066    
  0.210500002       12.2563725    
  0.210999995       12.0866451    
  0.211500004       11.9035902    
  0.211999997       11.7067776    
  0.212500006       11.4954586    
  0.213000000       11.2697668    
  0.213499993       11.0290709    
  0.214000002       10.7733040    
  0.214499995       10.5018282    
  0.215000004       10.2147026    
  0.215499997       9.91135883    
  0.216000006       9.59139538    
  0.216499999       9.25477695    
  0.216999993       8.90087986    
  0.217500001       8.52866745    
  0.217999995       8.13850117    
  0.218500003       7.73043060    
  0.218999997       7.30380440    
  0.219500005       6.85832739    
  0.219999999       6.39439154    
  0.220500007       5.91098642    
  0.221000001       5.40848064    
  0.221499994       4.88688564    
  0.222000003       4.34551811    
  0.222499996       3.78498316    
  0.223000005       3.20440507    
  0.223499998       2.60452390    
  0.224000007       1.98440433    
  0.224500000       1.34451342    
  0.224999994      0.685392499    
  0.225500003       6.72771875E-03
  0.225999996     -0.691790938    
  0.226500005      -1.41077423    
  0.226999998      -2.14877987    
  0.227500007      -2.90738010    
  0.228000000      -3.68619347    
  0.228499994      -4.48459482    
  0.229000002      -5.30348635    
  0.229499996      -6.14250708    
  0.230000004      -7.00148821    
  0.230499998      -7.88048458    
  0.231000006      -8.78040028    
  0.231500000      -9.69964409    
  0.231999993      -10.6384821    
  0.232500002      -11.5980034    
  0.232999995      -12.5759811    
  0.233500004      -13.5735064    
  0.233999997      -14.5901222    
  0.234500006      -15.6255989    
  0.234999999      -16.6791859    
  0.235499993      -17.7491894    
  0.236000001      -18.8368511    
  0.236499995      -19.9410267    
  0.237000003      -21.0607243    
  0.237499997      -22.1965313    
  0.238000005      -23.3466148    
  0.238499999      -24.5102463    
  0.238999993      -25.6874046    
  0.239500001      -26.8780746    
  0.239999995      -28.0800705    
  0.240500003      -29.2944717    
  0.240999997      -30.5210648    
  0.241500005      -31.7568092    
  0.241999999      -33.0016251    
  0.242500007      -34.2571716    
  0.243000001      -35.5195351    
  0.243499994      -36.7912560    
  0.244000003      -38.0691795    
  0.244499996      -39.3539848    
  0.245000005      -40.6441727    
  0.245499998      -41.9388885    
  0.246000007      -43.2374039    
  0.246500000      -44.5382156    
  0.246999994      -45.8401260    
  0.247500002      -47.1431007    
  0.247999996      -48.4452782    
  0.248500004      -49.7450867    
  0.248999998      -51.0418358    
  0.249500006      -52.3342247    
  0.250000000      -53.6208229    
  0.250499994      -54.8995857    
  0.250999987      -56.1704941    
  0.251500010      -57.4313660    
  0.252000004      -58.6815453    
  0.252499998      -59.9185867    
  0.252999991      -61.1413765    
  0.253500015      -62.3494720    
  0.254000008      -63.5401192    
  0.254500002      -64.7131271    
  0.254999995      -65.8669281    
  0.255499989      -67.0003967    
  0.256000012      -68.1130066    
  0.256500006      -69.2025909    
  0.256999999      -70.2673492    
  0.257499993      -71.3076401    
  0.257999986      -72.3218765    
  0.258500010      -73.3069763    
  0.259000003      -74.2624359    
  0.259499997      -75.1870956    
  0.259999990      -76.0796356    
  0.260500014      -76.9386215    
  0.261000007      -77.7610397    
  0.261500001      -78.5468597    
  0.261999995      -79.2937622    
  0.262499988      -80.0004044    
  0.263000011      -80.6646729    
  0.263500005      -81.2857895    
  0.263999999      -81.8619690    
  0.264499992      -82.3906555    
  0.264999986      -82.8715134    
  0.265500009      -83.3021545    
  0.266000003      -83.6821136    
  0.266499996      -84.0089417    
  0.266999990      -84.2828217    
  0.267500013      -84.5010300    
  0.268000007      -84.6632080    
  0.268500000      -84.7681351    
  0.268999994      -84.8145294    
  0.269499987      -84.8018036    
  0.270000011      -84.7289505    
  0.270500004      -84.5944214    
  0.270999998      -84.3976364    
  0.271499991      -84.1379623    
  0.272000015      -83.8143845    
  0.272500008      -83.4262772    
  0.273000002      -82.9724426    
  0.273499995      -82.4523849    
  0.273999989      -81.8648911    
  0.274500012      -81.2097321    
  0.275000006      -80.4854355    
  0.275500000      -79.6915359    
  0.275999993      -78.8276291    
  0.276499987      -77.8926086    
  0.277000010      -76.8858337    
  0.277500004      -75.8072815    
  0.277999997      -74.6560287    
  0.278499991      -73.4317703    
  0.279000014      -72.1345673    
  0.279500008      -70.7636795    
  0.280000001      -69.3195953    
  0.280499995      -67.8016281    
  0.280999988      -66.2100067    
  0.281500012      -64.5455399    
  0.282000005      -62.8082695    
  0.282499999      -60.9979706    
  0.282999992      -59.1156807    
  0.283499986      -57.1620903    
  0.284000009      -55.1377106    
  0.284500003      -53.0439949    
  0.284999996      -50.8806648    
  0.285499990      -48.6491089    
  0.286000013      -46.3499374    
  0.286500007      -43.9843750    
  0.287000000      -41.5543060    
  0.287499994      -39.0586433    
  0.287999988      -36.5008736    
  0.288500011      -33.8798141    
  0.289000005      -31.1985626    
  0.289499998      -28.4578323    
  0.289999992      -25.6590691    
  0.290499985      -22.8024120    
  0.291000009      -19.8926411    
  0.291500002      -16.9286938    
  0.291999996      -13.9123192    
  0.292499989      -10.8479528    
  0.293000013      -7.73499680    
  0.293500006      -4.57485294    
  0.294000000      -1.37158155    
  0.294499993       1.87369633    
  0.294999987       5.15747833    
  0.295500010       8.47830582    
  0.296000004       11.8329239    
  0.296499997       15.2185678    
  0.296999991       18.6340694    
  0.297500014       22.0747910    
  0.298000008       25.5404549    
  0.298500001       29.0276794    
  0.298999995       32.5311241    
  0.299499989       36.0513535    
  0.300000012       39.5844040    
  0.300500005       43.1260033    
  0.300999999       46.6748009    
  0.301499993       50.2276917    
  0.301999986       53.7821159    
  0.302500010       57.3347435    
  0.303000003       60.8801994    
  0.303499997       64.4180908    
  0.303999990       67.9448624    
  0.304500014       71.4593735    
  0.305000007       74.9538422    
  0.305500001       78.4311295    
  0.305999994       81.8836365    
  0.306499988       85.3111191    
  0.307000011       88.7063980    
  0.307500005       92.0715561    
  0.307999998       95.3993454    
  0.308499992       98.6888504    
  0.308999985       101.933960    
  0.309500009       105.133408    
  0.310000002       108.282379    
  0.310499996       111.378777    
  0.310999990       114.421417    
  0.311500013       117.402908    
  0.312000006       120.322166    
  0.312500000       123.176559    
  0.312999994       125.960785    
  0.313499987       128.674515    
  0.314000010       131.314697    
  0.314500004       133.875504    
  0.314999998       136.357712    
  0.315499991       138.758423    
  0.316000015       141.075119    
  0.316500008       143.303940    
  0.317000002       145.441086    
  0.317499995       147.486465    
  0.317999989       149.436630    
  0.318500012       151.289841    
  0.319000006       153.044800    
  0.319499999       154.694992    
  0.319999993       156.244888    
  0.320499986       157.687912    
  0.321000010       159.021790    
  0.321500003       160.245193    
  0.321999997       161.358002    
  0.322499990       162.358307    
  0.323000014       163.242554    
  0.323500007       164.010880    
  0.324000001       164.662949    
  0.324499995       165.193909    
  0.324999988       165.607849    
  0.325500011       165.898590    
  0.326000005       166.072327    
  0.326499999       166.122086    
  0.326999992       166.049973    
  0.327499986       165.855530    
  0.328000009       165.539490    
  0.328500003       165.096542    
  0.328999996       164.533234    
  0.329499990       163.845825    
  0.330000013       163.034851    
  0.330500007       162.103668    
  0.331000000       161.049561    
  0.331499994       159.873886    
  0.331999987       158.577972    
  0.332500011       157.160248    
  0.333000004       155.621567    
  0.333499998       153.966309    
  0.333999991       152.193283    
  0.334500015       150.304230    
  0.335000008       148.298599    
  0.335500002       146.181808    
  0.335999995       143.953156    
  0.336499989       141.614807    
  0.337000012       139.166351    
  0.337500006       136.611343    
  0.338000000       133.951660    
  0.338499993       131.188766    
  0.338999987       128.326813    
  0.339500010       125.365692    
  0.340000004       122.310692    
  0.340499997       119.162422    
  0.340999991       115.924416    
  0.341500014       112.598328    
  0.342000008       109.188919    
  0.342500001       105.696739    
  0.342999995       102.126961    
  0.343499988       98.4826889    
  0.344000012       94.7664566    
  0.344500005       90.9838638    
  0.344999999       87.1352692    
  0.345499992       83.2262726    
  0.345999986       79.2602768    
  0.346500009       75.2403412    
  0.347000003       71.1711502    
  0.347499996       67.0548553    
  0.347999990       62.8974533    
  0.348500013       58.7005539    
  0.349000007       54.4688721    
  0.349500000       50.2050705    
  0.349999994       45.9125061    
  0.350499988       41.5955544    
  0.351000011       37.2579689    
  0.351500005       32.9033165    
  0.351999998       28.5341034    
  0.352499992       24.1554050    
  0.352999985       19.7706871    
  0.353500009       15.3826408    
  0.354000002       10.9960718    
  0.354499996       6.61497164    
  0.354999989       2.24298620    
  0.355500013      -2.11549377    
  0.356000006      -6.45679808    
  0.356500000      -10.7764187    
  0.356999993      -15.0702143    
  0.357499987      -19.3342991    
  0.358000010      -23.5649261    
  0.358500004      -27.7578239    
  0.358999997      -31.9094448    
  0.359499991      -36.0161781    
  0.360000014      -40.0741577    
  0.360500008      -44.0796890    
  0.361000001      -48.0300331    
  0.361499995      -51.9221573    
  0.361999989      -55.7526093    
  0.362500012      -59.5186691    
  0.363000005      -63.2178040    
  0.363499999      -66.8478470    
  0.363999993      -70.4057312    
  0.364499986      -73.8888855    
  0.365000010      -77.2957001    
  0.365500003      -80.6230621    
  0.365999997      -83.8697052    
  0.366499990      -87.0319061    
  0.367000014      -90.1092072    
  0.367500007      -93.0982513    
  0.368000001      -95.9975433    
  0.368499994      -98.8042526    
  0.368999988      -101.515739    
  0.369500011      -104.130783    
  0.370000005      -106.647003    
  0.370499998      -109.061974    
  0.370999992      -111.374199    
  0.371499985      -113.582054    
  0.372000009      -115.684738    
  0.372500002      -117.679497    
  0.372999996      -119.565941    
  0.373499990      -121.343094    
  0.374000013      -123.010002    
  0.374500006      -124.566414    
  0.375000000      -126.011024    
  0.375499994      -127.345329    
  0.375999987      -128.570282    
  0.376500010      -129.683228    
  0.377000004      -130.686386    
  0.377499998      -131.579941    
  0.377999991      -132.365219    
  0.378500015      -133.041138    
  0.379000008      -133.608215    
  0.379500002      -134.068726    
  0.379999995      -134.422485    
  0.380499989      -134.671173    
  0.381000012      -134.813095    
  0.381500006      -134.851120    
  0.381999999      -134.786240    
  0.382499993      -134.616501    
  0.382999986      -134.346512    
  0.383500010      -133.976257    
  0.384000003      -133.505692    
  0.384499997      -132.936584    
  0.384999990      -132.269547    
  0.385500014      -131.507431    
  0.386000007      -130.649551    
  0.386500001      -129.700439    
  0.386999995      -128.658081    
  0.387499988      -127.528664    
  0.388000011      -126.311211    
  0.388500005      -125.010086    
  0.388999999      -123.624847    
  0.389499992      -122.160248    
  0.389999986      -120.619690    
  0.390500009      -119.004013    
  0.391000003      -117.316383    
  0.391499996      -115.559151    
  0.391999990      -113.734566    
  0.392500013      -111.847557    
  0.393000007      -109.897362    
  0.393500000      -107.889519    
  0.393999994      -105.824944    
  0.394499987      -103.706215    
  0.395000011      -101.538704    
  0.395500004      -99.3213196    
  0.395999998      -97.0575485    
  0.396499991      -94.7505035    
  0.397000015      -92.4006195    
  0.397500008      -90.0126266    
  0.398000002      -87.5863953    
  0.398499995      -85.1265640    
  0.398999989      -82.6344604    
  0.399500012      -80.1120377    
  0.400000006      -77.5640945    
  0.400500000      -74.9916992    
  0.400999993      -72.3999939    
  0.401499987      -69.7893753    
  0.402000010      -67.1623154    
  0.402500004      -64.5241852    
  0.402999997      -61.8762016    
  0.403499991      -59.2229424    
  0.404000014      -56.5643005    
  0.404500008      -53.9039307    
  0.405000001      -51.2455902    
  0.405499995      -48.5912895    
  0.405999988      -45.9429779    
  0.406500012      -43.3030510    
  0.407000005      -40.6740189    
  0.407499999      -38.0565681    
  0.407999992      -35.4536972    
  0.408499986      -32.8671036    
  0.409000009      -30.2988071    
  0.409500003      -27.7490520    
  0.409999996      -25.2219162    
  0.410499990      -22.7170944    
  0.411000013      -20.2358608    
  0.411500007      -17.7822876    
  0.412000000      -15.3554134    
  0.412499994      -12.9590483    
  0.412999988      -10.5925198    
  0.413500011      -8.25899410    
  0.414000005      -5.96108150    
  0.414499998      -3.70004082    
  0.414999992      -1.47562563    
  0.415499985      0.708854139    
  0.416000009       2.85142636    
  0.416500002       4.95107031    
  0.416999996       7.00616837    
  0.417499989       9.01659298    
  0.418000013       10.9806299    
  0.418500006       12.8953781    
  0.419000000       14.7621870    
  0.419499993       16.5796432    
  0.419999987       18.3467369    
  0.420500010       20.0634270    
  0.421000004       21.7296257    
  0.421499997       23.3447838    
  0.421999991       24.9087543    
  0.422500014       26.4216480    
  0.423000008       27.8835030    
  0.423500001       29.2937565    
  0.423999995       30.6528587    
  0.424499989       31.9608936    
  0.425000012       33.2178001    
  0.425500005       34.4235878    
  0.425999999       35.5785522    
  0.426499993       36.6814880    
  0.426999986       37.7323036    
  0.427500010       38.7312202    
  0.428000003       39.6777611    