   0.00000000       0.00000000    
   5.00000024E-04   0.00000000    
   1.00000005E-03   0.00000000    
   1.50000001E-03   4.52334909E-18
   2.00000009E-03   3.71803292E-17
   2.49999994E-03   1.60753036E-16
   3.00000003E-03   4.84144286E-16
   3.50000011E-03   1.12364416E-15
   4.00000019E-03   2.07750098E-15
   4.49999981E-03   2.97469395E-15
   4.99999989E-03   2.67470855E-15
   5.49999997E-03  -1.27369784E-15
   6.00000005E-03  -1.32620838E-14
   6.50000013E-03  -4.02344953E-14
   7.00000022E-03  -9.21232695E-14
   7.49999983E-03  -1.81906560E-13
   8.00000038E-03  -3.25065089E-13
   8.50000046E-03  -5.38227123E-13
   8.99999961E-03  -8.36844808E-13
   9.49999969E-03  -1.23184362E-12
   9.99999978E-03  -1.72532821E-12
   1.04999999E-02  -2.30560709E-12
   1.09999999E-02  -2.94199430E-12
   1.15000000E-02  -3.58003818E-12
   1.20000001E-02  -4.13799290E-12
   1.25000002E-02  -4.50545113E-12
   1.30000003E-02  -4.54506745E-12
   1.35000004E-02  -4.09821482E-12
   1.40000004E-02  -2.99517746E-12
   1.44999996E-02  -1.07014387E-12
   1.49999997E-02   1.81922945E-12
   1.54999997E-02   5.76846990E-12
   1.60000008E-02   1.08005748E-11
   1.64999999E-02   1.68399687E-11
   1.70000009E-02   2.36887055E-11
   1.75000001E-02   3.10079219E-11
   1.79999992E-02   3.83076938E-11
   1.85000002E-02   4.49484269E-11
   1.89999994E-02   5.01564450E-11
   1.95000004E-02   5.30557404E-11
   1.99999996E-02   5.27167615E-11
   2.05000006E-02   4.82217218E-11
   2.09999997E-02   3.87443411E-11
   2.15000007E-02   2.36402217E-11
   2.19999999E-02   2.54243480E-12
   2.25000009E-02  -2.45447343E-11
   2.30000000E-02  -5.71619384E-11
   2.34999992E-02  -9.43296205E-11
   2.40000002E-02  -1.34510417E-10
   2.44999994E-02  -1.75607195E-10
   2.50000004E-02  -2.15003404E-10
   2.54999995E-02  -2.49650078E-10
   2.60000005E-02  -2.76201062E-10
   2.64999997E-02  -2.91194180E-10
   2.70000007E-02  -2.91272589E-10
   2.74999999E-02  -2.73436385E-10
   2.80000009E-02  -2.35310660E-10
   2.85000000E-02  -1.75413351E-10
   2.89999992E-02  -9.34035210E-11
   2.95000002E-02   9.71047635E-12
   2.99999993E-02   1.31423095E-10
   3.05000003E-02   2.67662836E-10
   3.09999995E-02   4.12818002E-10
   3.15000005E-02   5.59867708E-10
   3.20000015E-02   7.00622615E-10
   3.24999988E-02   8.26073376E-10
   3.29999998E-02   9.26835775E-10
   3.35000008E-02   9.93675364E-10
   3.40000018E-02   1.01808639E-09
   3.44999991E-02   9.92891880E-10
   3.50000001E-02   9.12829423E-10
   3.55000012E-02   7.75084219E-10
   3.59999985E-02   5.79727766E-10
   3.64999995E-02   3.30026589E-10
   3.70000005E-02   3.25886332E-11
   3.75000015E-02  -3.02676856E-10
   3.79999988E-02  -6.62800370E-10
   3.84999998E-02  -1.03219577E-09
   3.90000008E-02  -1.39329681E-09
   3.95000018E-02  -1.72736159E-09
   3.99999991E-02  -2.01540984E-09
   4.05000001E-02  -2.23924457E-09
   4.10000011E-02  -2.38250175E-09
   4.14999984E-02  -2.43166709E-09
   4.19999994E-02  -2.37699682E-09
   4.25000004E-02  -2.21327912E-09
   4.30000015E-02  -1.94038252E-09
   4.34999987E-02  -1.56354873E-09
   4.39999998E-02  -1.09339582E-09
   4.45000008E-02  -5.45619661E-10
   4.50000018E-02   5.96008590E-11
   4.54999991E-02   6.98473501E-10
   4.60000001E-02   1.34469447E-09
   4.65000011E-02   1.97072381E-09
   4.69999984E-02   2.54916421E-09
   4.74999994E-02   3.05416248E-09
   4.80000004E-02   3.46275142E-09
   4.85000014E-02   3.75604570E-09
   4.89999987E-02   3.92022148E-09
   4.94999997E-02   3.94721456E-09
   5.00000007E-02   3.83509180E-09
   5.05000018E-02   3.58807162E-09
   5.09999990E-02   3.21618843E-09
   5.15000001E-02   2.73463163E-09
   5.20000011E-02   2.16279172E-09
   5.24999984E-02   1.52308766E-09
   5.29999994E-02   8.39651404E-10
   5.35000004E-02   1.36961872E-10
   5.40000014E-02  -5.61476921E-10
   5.44999987E-02  -1.23432120E-09
   5.49999997E-02  -1.86335392E-09
   5.55000007E-02  -2.43416531E-09
   5.60000017E-02  -2.93650548E-09
   5.64999990E-02  -3.36428463E-09
   5.70000000E-02  -3.71523434E-09
   5.75000010E-02  -3.99026101E-09
   5.79999983E-02  -4.19255963E-09
   5.84999993E-02  -4.32656266E-09
   5.90000004E-02  -4.39683268E-09
   5.95000014E-02  -4.40699566E-09
   5.99999987E-02  -4.35883551E-09
   6.04999997E-02  -4.25163194E-09
   6.10000007E-02  -4.08183487E-09
   6.15000017E-02  -3.84312981E-09
   6.19999990E-02  -3.52691165E-09
   6.25000000E-02  -3.12316528E-09
   6.30000010E-02  -2.62170263E-09
   6.35000020E-02  -2.01367367E-09
   6.40000030E-02  -1.29324174E-09
   6.44999966E-02  -4.59287886E-10
   6.49999976E-02   4.83010132E-10
   6.54999986E-02   1.52087598E-09
   6.59999996E-02   2.63305733E-09
   6.65000007E-02   3.78949760E-09
   6.70000017E-02   4.95165819E-09
   6.75000027E-02   6.07353634E-09
   6.80000037E-02   7.10339298E-09
   6.84999973E-02   7.98613531E-09
   6.89999983E-02   8.66626060E-09
   6.94999993E-02   9.09120512E-09
   7.00000003E-02   9.21490884E-09
   7.05000013E-02   9.00136943E-09
   7.10000023E-02   8.42793657E-09
   7.15000033E-02   7.48810614E-09
   7.19999969E-02   6.19357499E-09
   7.24999979E-02   4.57536853E-09
   7.29999989E-02   2.68386824E-09
   7.34999999E-02   5.87668858E-10
   7.40000010E-02  -1.62876779E-09
   7.45000020E-02  -3.86859478E-09
   7.50000030E-02  -6.02706862E-09
   7.54999965E-02  -7.99682276E-09
   7.59999976E-02  -9.67365477E-09
   7.64999986E-02  -1.09625047E-08
   7.69999996E-02  -1.17832553E-08
   7.75000006E-02  -1.20759953E-08
   7.80000016E-02  -1.18053896E-08
   7.85000026E-02  -1.09638485E-08
   7.90000036E-02  -9.57323554E-09
   7.94999972E-02  -7.68493891E-09
   7.99999982E-02  -5.37823430E-09
   8.04999992E-02  -2.75697420E-09
   8.10000002E-02   5.52857551E-11
   8.15000013E-02   2.92145907E-09
   8.20000023E-02   5.69808778E-09
   8.25000033E-02   8.24307733E-09
   8.29999968E-02   1.04235474E-08
   8.34999979E-02   1.21233414E-08
   8.39999989E-02   1.32496938E-08
   8.44999999E-02   1.37386555E-08
   8.50000009E-02   1.35588980E-08
   8.55000019E-02   1.27136293E-08
   8.60000029E-02   1.12404708E-08
   8.64999965E-02   9.20927334E-09
   8.69999975E-02   6.71798084E-09
   8.74999985E-02   3.88677224E-09
   8.79999995E-02   8.50850668E-10
   8.85000005E-02  -2.24766095E-09
   8.90000015E-02  -5.26820632E-09
   8.95000026E-02  -8.08009659E-09
   9.00000036E-02  -1.05700630E-08
   9.04999971E-02  -1.26485462E-08
   9.09999982E-02  -1.42542840E-08
   9.14999992E-02  -1.53568589E-08
   9.20000002E-02  -1.59570135E-08
   9.25000012E-02  -1.60846909E-08
   9.30000022E-02  -1.57949351E-08
   9.35000032E-02  -1.51618895E-08
   9.39999968E-02  -1.42713761E-08
   9.44999978E-02  -1.32125377E-08
   9.49999988E-02  -1.20692105E-08
   9.54999998E-02  -1.09116778E-08
   9.60000008E-02  -9.78947323E-09
   9.65000018E-02  -8.72584316E-09
   9.70000029E-02  -7.71438291E-09
   9.74999964E-02  -6.71823264E-09
   9.79999974E-02  -5.67200287E-09
   9.84999985E-02  -4.48646942E-09
   9.89999995E-02  -3.05580872E-09
   9.95000005E-02  -1.26697619E-09
  0.100000001       9.89364590E-10
  0.100500003       3.80710219E-09
  0.101000004       7.25298577E-09
  0.101499997       1.13558762E-08
  0.101999998       1.60978466E-08
  0.102499999       2.14079616E-08
  0.103000000       2.71594338E-08
  0.103500001       3.31706431E-08
  0.104000002       3.92103061E-08
  0.104500003       4.50068001E-08
  0.104999997       5.02613346E-08
  0.105499998       5.46644259E-08
  0.105999999       5.79147965E-08
  0.106500000       5.97397047E-08
  0.107000001       5.99153722E-08
  0.107500002       5.82862825E-08
  0.108000003       5.47819248E-08
  0.108499996       4.94297581E-08
  0.108999997       4.23632081E-08
  0.109499998       3.38239126E-08
  0.109999999       2.41574973E-08
  0.110500000       1.38028087E-08
  0.111000001       3.27472693E-09
  0.111500002      -6.85884460E-09
  0.112000003      -1.60047904E-08
  0.112499997      -2.35760567E-08
  0.112999998      -2.90247009E-08
  0.113499999      -3.18748832E-08
  0.114000000      -3.17538387E-08
  0.114500001      -2.84188051E-08
  0.115000002      -2.17781011E-08
  0.115500003      -1.19048273E-08
  0.115999997       9.58127799E-10
  0.116499998       1.64025771E-08
  0.116999999       3.38692452E-08
  0.117500000       5.26714246E-08
  0.118000001       7.20272482E-08
  0.118500002       9.10990963E-08
  0.119000003       1.09038389E-07
  0.119499996       1.25033338E-07
  0.119999997       1.38357109E-07
  0.120499998       1.48413704E-07
  0.120999999       1.54778832E-07
  0.121500000       1.57233146E-07
  0.122000001       1.55785685E-07
  0.122500002       1.50685679E-07
  0.123000003       1.42421499E-07
  0.123499997       1.31706372E-07
  0.123999998       1.19450959E-07
  0.124499999       1.06723775E-07
  0.125000000       9.47011358E-08
  0.125499994       8.46090629E-08
  0.126000002       7.76601468E-08
  0.126499996       7.49882219E-08
  0.127000004       7.75849003E-08
  0.127499998       8.62414566E-08
  0.128000006       1.01499218E-07
  0.128500000       1.23611784E-07
  0.128999993       1.52521494E-07
  0.129500002       1.87851924E-07
  0.129999995       2.28917671E-07
  0.130500004       2.74751130E-07
  0.130999997       3.24145674E-07
  0.131500006       3.75713512E-07
  0.131999999       4.27954973E-07
  0.132499993       4.79337075E-07
  0.133000001       5.28376177E-07
  0.133499995       5.73720570E-07
  0.134000003       6.14229805E-07
  0.134499997       6.49045091E-07
  0.135000005       6.77646995E-07
  0.135499999       6.99897328E-07
  0.136000007       7.16062459E-07
  0.136500001       7.26816722E-07
  0.136999995       7.33223715E-07
  0.137500003       7.36698382E-07
  0.137999997       7.38949495E-07
  0.138500005       7.41905865E-07
  0.138999999       7.47630736E-07
  0.139500007       7.58225553E-07
  0.140000001       7.75733156E-07
  0.140499994       8.02041200E-07
  0.141000003       8.38791834E-07
  0.141499996       8.87304509E-07
  0.142000005       9.48514639E-07
  0.142499998       1.02293120E-06
  0.143000007       1.11061763E-06
  0.143500000       1.21119615E-06
  0.143999994       1.32387606E-06
  0.144500002       1.44750425E-06
  0.144999996       1.58063733E-06
  0.145500004       1.72163050E-06
  0.145999998       1.86873694E-06
  0.146500006       2.02021670E-06
  0.147000000       2.17444449E-06
  0.147499993       2.33001583E-06
  0.148000002       2.48584320E-06
  0.148499995       2.64123332E-06
  0.149000004       2.79594974E-06
  0.149499997       2.95024870E-06
  0.150000006       3.10489258E-06
  0.150500000       3.26113241E-06
  0.150999993       3.42066960E-06
  0.151500002       3.58559259E-06
  0.151999995       3.75829313E-06
  0.152500004       3.94136532E-06
  0.152999997       4.13749513E-06
  0.153500006       4.34934691E-06
  0.153999999       4.57944816E-06
  0.154499993       4.83008489E-06
  0.155000001       5.10321388E-06
  0.155499995       5.40038445E-06
  0.156000003       5.72269482E-06
  0.156499997       6.07077254E-06
  0.157000005       6.44477541E-06
  0.157499999       6.84442557E-06
  0.158000007       7.26907456E-06
  0.158500001       7.71778923E-06
  0.158999994       8.18945318E-06
  0.159500003       8.68288589E-06
  0.159999996       9.19697231E-06
  0.160500005       9.73078932E-06
  0.160999998       1.02837284E-05
  0.161500007       1.08556042E-05
  0.162000000       1.14467502E-05
  0.162499994       1.20580853E-05
  0.163000003       1.26911527E-05
  0.163499996       1.33481317E-05
  0.164000005       1.40318289E-05
  0.164499998       1.47456203E-05
  0.165000007       1.54933787E-05
  0.165500000       1.62793713E-05
  0.165999994       1.71081483E-05
  0.166500002       1.79844010E-05
  0.166999996       1.89128459E-05
  0.167500004       1.98980815E-05
  0.167999998       2.09444679E-05
  0.168500006       2.20560396E-05
  0.169000000       2.32363927E-05
  0.169499993       2.44886487E-05
  0.170000002       2.58154305E-05
  0.170499995       2.72188536E-05
  0.171000004       2.87005878E-05
  0.171499997       3.02619101E-05
  0.172000006       3.19038190E-05
  0.172499999       3.36271369E-05
  0.172999993       3.54326476E-05
  0.173500001       3.73212533E-05
  0.173999995       3.92941110E-05
  0.174500003       4.13527705E-05
  0.174999997       4.34993126E-05
  0.175500005       4.57364622E-05
  0.175999999       4.80676717E-05
  0.176499993       5.04971613E-05
  0.177000001       5.30299803E-05
  0.177499995       5.56719679E-05
  0.178000003       5.84297304E-05
  0.178499997       6.13105876E-05
  0.179000005       6.43224339E-05
  0.179499999       6.74736875E-05
  0.180000007       7.07731597E-05
  0.180500001       7.42298580E-05
  0.180999994       7.78529065E-05
  0.181500003       8.16514512E-05
  0.181999996       8.56344923E-05
  0.182500005       8.98108337E-05
  0.182999998       9.41890321E-05
  0.183500007       9.87773528E-05
  0.184000000       1.03583814E-04
  0.184499994       1.08616114E-04
  0.185000002       1.13881782E-04
  0.185499996       1.19388242E-04
  0.186000004       1.25142906E-04
  0.186499998       1.31153341E-04
  0.187000006       1.37427385E-04
  0.187500000       1.43973186E-04
  0.187999994       1.50799489E-04
  0.188500002       1.57915711E-04
  0.188999996       1.65331963E-04
  0.189500004       1.73059190E-04
  0.189999998       1.81109208E-04
  0.190500006       1.89494807E-04
  0.191000000       1.98229725E-04
  0.191499993       2.07328587E-04
  0.192000002       2.16806890E-04
  0.192499995       2.26680859E-04
  0.193000004       2.36967506E-04
  0.193499997       2.47684424E-04
  0.194000006       2.58849817E-04
  0.194499999       2.70482240E-04
  0.194999993       2.82600580E-04
  0.195500001       2.95224105E-04
  0.195999995       3.08372342E-04
  0.196500003       3.22064850E-04
  0.196999997       3.36321275E-04
  0.197500005       3.51161725E-04
  0.197999999       3.66606459E-04
  0.198500007       3.82675993E-04
  0.199000001       3.99391167E-04
  0.199499995       4.16773401E-04
  0.200000003       4.34844784E-04
  0.200499997       4.53627959E-04
  0.201000005       4.73146152E-04
  0.201499999       4.93423548E-04
  0.202000007       5.14485291E-04
  0.202500001       5.36357285E-04
  0.202999994       5.59066597E-04
  0.203500003       5.82641340E-04
  0.203999996       6.07110793E-04
  0.204500005       6.32505224E-04
  0.204999998       6.58855832E-04
  0.205500007       6.86194864E-04
  0.206000000       7.14554859E-04
  0.206499994       7.43969635E-04
  0.207000002       7.74473767E-04
  0.207499996       8.06102296E-04
  0.208000004       8.38891021E-04
  0.208499998       8.72876262E-04
  0.209000006       9.08094924E-04
  0.209500000       9.44584550E-04
  0.209999993       9.82383383E-04
  0.210500002       1.02153001E-03
  0.210999995       1.06206397E-03
  0.211500004       1.10402540E-03
  0.211999997       1.14745449E-03
  0.212500006       1.19239313E-03
  0.213000000       1.23888382E-03
  0.213499993       1.28697045E-03
  0.214000002       1.33669807E-03
  0.214499995       1.38811255E-03
  0.215000004       1.44126057E-03
  0.215499997       1.49619079E-03
  0.216000006       1.55295362E-03
  0.216499999       1.61160016E-03
  0.216999993       1.67218293E-03
  0.217500001       1.73475593E-03
  0.217999995       1.79937412E-03
  0.218500003       1.86609337E-03
  0.218999997       1.93496991E-03
  0.219500005       2.00606138E-03
  0.219999999       2.07942631E-03
  0.220500007       2.15512328E-03
  0.221000001       2.23321212E-03
  0.221499994       2.31375149E-03
  0.222000003       2.39680149E-03
  0.222499996       2.48242239E-03
  0.223000005       2.57067336E-03
  0.223499998       2.66161608E-03
  0.224000007       2.75531015E-03
  0.224500000       2.85181613E-03
  0.224999994       2.95119477E-03
  0.225500003       3.05350590E-03
  0.225999996       3.15881078E-03
  0.226500005       3.26717156E-03
  0.226999998       3.37865064E-03
  0.227500007       3.49331065E-03
  0.228000000       3.61121423E-03
  0.228499994       3.73242516E-03
  0.229000002       3.85700865E-03
  0.229499996       3.98503104E-03
  0.230000004       4.11655987E-03
  0.230499998       4.25166264E-03
  0.231000006       4.39040875E-03
  0.231500000       4.53286665E-03
  0.231999993       4.67910804E-03
  0.232500002       4.82920464E-03
  0.232999995       4.98322584E-03
  0.233500004       5.14124241E-03
  0.233999997       5.30332420E-03
  0.234500006       5.46953967E-03
  0.234999999       5.63995680E-03
  0.235499993       5.81464125E-03
  0.236000001       5.99365775E-03
  0.236499995       6.17707008E-03
  0.237000003       6.36493601E-03
  0.237499997       6.55731186E-03
  0.238000005       6.75425446E-03
  0.238499999       6.95581594E-03
  0.238999993       7.16204848E-03
  0.239500001       7.37300050E-03
  0.239999995       7.58871902E-03
  0.240500003       7.80924968E-03
  0.240999997       8.03463254E-03
  0.241500005       8.26491136E-03
  0.241999999       8.50012898E-03
  0.242500007       8.74032360E-03
  0.243000001       8.98553059E-03
  0.243499994       9.23578814E-03
  0.244000003       9.49113257E-03
  0.244499996       9.75159928E-03
  0.245000005       1.00172199E-02
  0.245499998       1.02880225E-02
  0.246000007       1.05640376E-02
  0.246500000       1.08452933E-02
  0.246999994       1.11318082E-02
  0.247500002       1.14236027E-02
  0.247999996       1.17206909E-02
  0.248500004       1.20230801E-02
  0.248999998       1.23307751E-02
  0.249500006       1.26437685E-02
  0.250000000       1.29620461E-02
  0.250499994       1.32855987E-02
  0.250999987       1.36144031E-02
  0.251500010       1.39484275E-02
  0.252000004       1.42876338E-02
  0.252499998       1.46319745E-02
  0.252999991       1.49813928E-02
  0.253500015       1.53358309E-02
  0.254000008       1.56952236E-02
  0.254500002       1.60594918E-02
  0.254999995       1.64285563E-02
  0.255499989       1.68023277E-02
  0.256000012       1.71807148E-02
  0.256500006       1.75636280E-02
  0.256999999       1.79509670E-02
  0.257499993       1.83426291E-02
  0.257999986       1.87384989E-02
  0.258500010       1.91384554E-02
  0.259000003       1.95423812E-02
  0.259499997       1.99501459E-02
  0.259999990       2.03616042E-02
  0.260500014       2.07766090E-02
  0.261000007       2.11949982E-02
  0.261500001       2.16166060E-02
  0.261999995       2.20412593E-02
  0.262499988       2.24687625E-02
  0.263000011       2.28989199E-02
  0.263500005       2.33315211E-02
  0.263999999       2.37663444E-02
  0.264499992       2.42031626E-02
  0.264999986       2.46417243E-02
  0.265500009       2.50817705E-02
  0.266000003       2.55230181E-02
  0.266499996       2.59651784E-02
  0.266999990       2.64079534E-02
  0.267500013       2.68510319E-02
  0.268000007       2.72940956E-02
  0.268500000       2.77368035E-02
  0.268999994       2.81788018E-02
  0.269499987       2.86197327E-02
  0.270000011       2.90592257E-02
  0.270500004       2.94969007E-02
  0.270999998       2.99323648E-02
  0.271499991       3.03652249E-02
  0.272000015       3.07950806E-02
  0.272500008       3.12215146E-02
  0.273000002       3.16440985E-02
  0.273499995       3.20624150E-02
  0.273999989       3.24760228E-02
  0.274500012       3.28844637E-02
  0.275000006       3.32872868E-02
  0.275500000       3.36840227E-02
  0.275999993       3.40742022E-02
  0.276499987       3.44573110E-02
  0.277000010       3.48328240E-02
  0.277500004       3.52002122E-02
  0.277999997       3.55589315E-02
  0.278499991       3.59084122E-02
  0.279000014       3.62480879E-02
  0.279500008       3.65773551E-02
  0.280000001       3.68956178E-02
  0.280499995       3.72022688E-02
  0.280999988       3.74966748E-02
  0.281500012       3.77782173E-02
  0.282000005       3.80462743E-02
  0.282499999       3.83002050E-02
  0.282999992       3.85393500E-02
  0.283499986       3.87630574E-02
  0.284000009       3.89706567E-02
  0.284500003       3.91614884E-02
  0.284999996       3.93348746E-02
  0.285499990       3.94901335E-02
  0.286000013       3.96265872E-02
  0.286500007       3.97435315E-02
  0.287000000       3.98402661E-02
  0.287499994       3.99160944E-02
  0.287999988       3.99703346E-02
  0.288500011       4.00022790E-02
  0.289000005       4.00111750E-02
  0.289499998       3.99963148E-02
  0.289999992       3.99569795E-02
  0.290499985       3.98924686E-02
  0.291000009       3.98020521E-02
  0.291500002       3.96850184E-02
  0.291999996       3.95406485E-02
  0.292499989       3.93682085E-02
  0.293000013       3.91669907E-02
  0.293500006       3.89362834E-02
  0.294000000       3.86753716E-02
  0.294499993       3.83835658E-02
  0.294999987       3.80601846E-02
  0.295500010       3.77045423E-02
  0.296000004       3.73159423E-02
  0.296499997       3.68937552E-02
  0.296999991       3.64373364E-02
  0.297500014       3.59460190E-02
  0.298000008       3.54191810E-02
  0.298500001       3.48562039E-02
  0.298999995       3.42564695E-02
  0.299499989       3.36193815E-02
  0.300000012       3.29443626E-02
  0.300500005       3.22308168E-02
  0.300999999       3.14782076E-02
  0.301499993       3.06859892E-02
  0.301999986       2.98536401E-02
  0.302500010       2.89806519E-02
  0.303000003       2.80665811E-02
  0.303499997       2.71109845E-02
  0.303999990       2.61134561E-02
  0.304500014       2.50736140E-02
  0.305000007       2.39910707E-02
  0.305500001       2.28655022E-02
  0.305999994       2.16966476E-02
  0.306499988       2.04842724E-02
  0.307000011       1.92281809E-02
  0.307500005       1.79281924E-02
  0.307999998       1.65841151E-02
  0.308499992       1.51958205E-02
  0.308999985       1.37632517E-02
  0.309500009       1.22863948E-02
  0.310000002       1.07652061E-02
  0.310499996       9.19965561E-03
  0.310999990       7.58978259E-03
  0.311500013       5.93569083E-03
  0.312000006       4.23753494E-03
  0.312500000       2.49545299E-03
  0.312999994       7.09591608E-04
  0.313499987      -1.11981423E-03
  0.314000010      -2.99250474E-03
  0.314500004      -4.90815984E-03
  0.314999998      -6.86635030E-03
  0.315499991      -8.86663329E-03
  0.316000015      -1.09085664E-02
  0.316500008      -1.29916118E-02
  0.317000002      -1.51151447E-02
  0.317499995      -1.72785185E-02
  0.317999989      -1.94810890E-02
  0.318500012      -2.17221323E-02
  0.319000006      -2.40007974E-02
  0.319499999      -2.63161100E-02
  0.319999993      -2.86670830E-02
  0.320499986      -3.10527496E-02
  0.321000010      -3.34720649E-02
  0.321500003      -3.59239019E-02
  0.321999997      -3.84070650E-02
  0.322499990      -4.09203693E-02
  0.323000014      -4.34625484E-02
  0.323500007      -4.60322760E-02
  0.324000001      -4.86282110E-02
  0.324499995      -5.12489378E-02
  0.324999988      -5.38930520E-02
  0.325500011      -5.65591119E-02
  0.326000005      -5.92455752E-02
  0.326499999      -6.19508624E-02
  0.326999992      -6.46733716E-02
  0.327499986      -6.74114227E-02
  0.328000009      -7.01632947E-02
  0.328500003      -7.29271919E-02
  0.328999996      -7.57012367E-02
  0.329499990      -7.84834847E-02
  0.330000013      -8.12719837E-02
  0.330500007      -8.40647221E-02
  0.331000000      -8.68595913E-02
  0.331499994      -8.96544382E-02
  0.331999987      -9.24470350E-02
  0.332500011      -9.52351242E-02
  0.333000004      -9.80163664E-02
  0.333499998     -0.100788377    
  0.333999991     -0.103548780    
  0.334500015     -0.106295198    
  0.335000008     -0.109025180    
  0.335500002     -0.111736275    
  0.335999995     -0.114426017    
  0.336499989     -0.117091902    
  0.337000012     -0.119731441    
  0.337500006     -0.122342192    
  0.338000000     -0.124921642    
  0.338499993     -0.127467245    
  0.338999987     -0.129976422    
  0.339500010     -0.132446676    
  0.340000004     -0.134875447    
  0.340499997     -0.137260124    
  0.340999991     -0.139598072    
  0.341500014     -0.141886681    
  0.342000008     -0.144123271    
  0.342500001     -0.146305144    
  0.342999995     -0.148429543    
  0.343499988     -0.150493801    
  0.344000012     -0.152495235    
  0.344500005     -0.154431090    
  0.344999999     -0.156298667    
  0.345499992     -0.158095270    
  0.345999986     -0.159818158    
  0.346500009     -0.161464676    
  0.347000003     -0.163032249    
  0.347499996     -0.164518371    
  0.347999990     -0.165920541    
  0.348500013     -0.167236328    
  0.349000007     -0.168463290    
  0.349500000     -0.169599101    
  0.349999994     -0.170641541    
  0.350499988     -0.171588376    
  0.351000011     -0.172437429    
  0.351500005     -0.173186615    
  0.351999998     -0.173833936    
  0.352499992     -0.174377397    
  0.352999985     -0.174815074    
  0.353500009     -0.175145060    
  0.354000002     -0.175365612    
  0.354499996     -0.175474986    
  0.354999989     -0.175471425    
  0.355500013     -0.175353289    
  0.356000006     -0.175118968    
  0.356500000     -0.174766958    
  0.356999993     -0.174295858    
  0.357499987     -0.173704386    
  0.358000010     -0.172991306    
  0.358500004     -0.172155514    
  0.358999997     -0.171195999    
  0.359499991     -0.170111790    
  0.360000014     -0.168902189    
  0.360500008     -0.167566523    
  0.361000001     -0.166104242    
  0.361499995     -0.164514959    
  0.361999989     -0.162798449    
  0.362500012     -0.160954565    
  0.363000005     -0.158983260    
  0.363499999     -0.156884596    
  0.363999993     -0.154658765    
  0.364499986     -0.152306199    
  0.365000010     -0.149827391    
  0.365500003     -0.147222921    
  0.365999997     -0.144493535    
  0.366499990     -0.141640142    
  0.367000014     -0.138663709    
  0.367500007     -0.135565385    
  0.368000001     -0.132346377    
  0.368499994     -0.129008040    
  0.368999988     -0.125551939    
  0.369500011     -0.121979743    
  0.370000005     -0.118293196    
  0.370499998     -0.114494279    
  0.370999992     -0.110584982    
  0.371499985     -0.106567428    
  0.372000009     -0.102443874    
  0.372500002      -9.82167572E-02
  0.372999996      -9.38886702E-02
  0.373499990      -8.94622505E-02
  0.374000013      -8.49402100E-02
  0.374500006      -8.03254470E-02
  0.375000000      -7.56209791E-02
  0.375499994      -7.08299428E-02
  0.375999987      -6.59556761E-02
  0.376500010      -6.10015988E-02
  0.377000004      -5.59712350E-02
  0.377499998      -5.08682765E-02
  0.377999991      -4.56966087E-02
  0.378500015      -4.04601134E-02
  0.379000008      -3.51628512E-02
  0.379500002      -2.98090372E-02
  0.379999995      -2.44030170E-02
  0.380499989      -1.89491268E-02
  0.381000012      -1.34518053E-02
  0.381500006      -7.91574363E-03
  0.381999999      -2.34559877E-03
  0.382499993       3.25392606E-03
  0.382999986       8.87798145E-03
  0.383500010       1.45217106E-02
  0.384000003       2.01803036E-02
  0.384499997       2.58488841E-02
  0.384999990       3.15224230E-02
  0.385500014       3.71958278E-02
  0.386000007       4.28640582E-02
  0.386500001       4.85220142E-02
  0.386999995       5.41646294E-02
  0.387499988       5.97867444E-02
  0.388000011       6.53831661E-02
  0.388500005       7.09486678E-02
  0.388999999       7.64779299E-02
  0.389499992       8.19657221E-02
  0.389999986       8.74066874E-02
  0.390500009       9.27954838E-02
  0.391000003       9.81267616E-02
  0.391499996      0.103395082    
  0.391999990      0.108595170    
  0.392500013      0.113721646    
  0.393000007      0.118769228    
  0.393500000      0.123732552    
  0.393999994      0.128606230    
  0.394499987      0.133385152    
  0.395000011      0.138064086    
  0.395500004      0.142637983    
  0.395999998      0.147101894    
  0.396499991      0.151451021    
  0.397000015      0.155680642    
  0.397500008      0.159786046    
  0.398000002      0.163762718    
  0.398499995      0.167606354    
  0.398999989      0.171312660    
  0.399500012      0.174877524    
  0.400000006      0.178296909    
  0.400500000      0.181566834    
  0.400999993      0.184683517    
  0.401499987      0.187643170    
  0.402000010      0.190442026    
  0.402500004      0.193076670    
  0.402999997      0.195543677    
  0.403499991      0.197839648    
  0.404000014      0.199961320    
  0.404500008      0.201905742    
  0.405000001      0.203670174    
  0.405499995      0.205252022    
  0.405999988      0.206648737    
  0.406500012      0.207857832    
  0.407000005      0.208877355    
  0.407499999      0.209705427    
  0.407999992      0.210340306    
  0.408499986      0.210780635    
  0.409000009      0.211025283    
  0.409500003      0.211073250    
  0.409999996      0.210923597    
  0.410499990      0.210575774    
  0.411000013      0.210029528    
  0.411500007      0.209284589    
  0.412000000      0.208341166    
  0.412499994      0.207199737    
  0.412999988      0.205860659    
  0.413500011      0.204324439    
  0.414000005      0.202592105    
  0.414499998      0.200664803    
  0.414999992      0.198543787    
  0.415499985      0.196230486    
  0.416000009      0.193726391    
  0.416500002      0.191033274    
  0.416999996      0.188153237    
  0.417499989      0.185088351    
  0.418000013      0.181841090    
  0.418500006      0.178414106    
  0.419000000      0.174810186    
  0.419499993      0.171032354    
  0.419999987      0.167083830    
  0.420500010      0.162968040    
  0.421000004      0.158688635    
  0.421499997      0.154249460    
  0.421999991      0.149654597    
  0.422500014      0.144908324    
  0.423000008      0.140015200    
  0.423500001      0.134979814    
  0.423999995      0.129807115    
  0.424499989      0.124502316    
  0.425000012      0.119070657    
  0.425500005      0.113517515    
  0.425999999      0.107848555    
  0.426499993      0.102069609    
  0.426999986       9.61865932E-02
  0.427500010       9.02054757E-02
  0.428000003       8.41323733E-02