   0.00000000       0.00000000    
   5.00000024E-04  -1.05170386E-12
   1.00000005E-03  -3.08125075E-12
   1.50000001E-03  -5.87779998E-12
   2.00000009E-03  -9.11996000E-12
   2.49999994E-03  -1.24171558E-11
   3.00000003E-03  -1.53613545E-11
   3.50000011E-03  -1.75832942E-11
   4.00000019E-03  -1.88066663E-11
   4.49999981E-03  -1.88937546E-11
   4.99999989E-03  -1.78767157E-11
   5.49999997E-03  -1.59700673E-11
   6.00000005E-03  -1.35618973E-11
   6.50000013E-03  -1.11835532E-11
   7.00000022E-03  -9.46002304E-12
   7.49999983E-03  -9.04555424E-12
   8.00000038E-03  -1.05510800E-11
   8.50000046E-03  -1.44714778E-11
   8.99999961E-03  -2.11214102E-11
   9.49999969E-03  -3.05883721E-11
   9.99999978E-03  -4.27105191E-11
   1.04999999E-02  -5.70849826E-11
   1.09999999E-02  -7.31096364E-11
   1.15000000E-02  -9.00581484E-11
   1.20000001E-02  -1.07184574E-10
   1.25000002E-02  -1.23850166E-10
   1.30000003E-02  -1.39661949E-10
   1.35000004E-02  -1.54610186E-10
   1.40000004E-02  -1.69189773E-10
   1.44999996E-02  -1.84490867E-10
   1.49999997E-02  -2.02244221E-10
   1.54999997E-02  -2.24809629E-10
   1.60000008E-02  -2.55098664E-10
   1.64999999E-02  -2.96428299E-10
   1.70000009E-02  -3.52307322E-10
   1.75000001E-02  -4.26162827E-10
   1.79999992E-02  -5.21021060E-10
   1.85000002E-02  -6.39161946E-10
   1.89999994E-02  -7.81770926E-10
   1.95000004E-02  -9.48616408E-10
   1.99999996E-02  -1.13777920E-09
   2.05000006E-02  -1.34546541E-09
   2.09999997E-02  -1.56592594E-09
   2.15000007E-02  -1.79150306E-09
   2.19999999E-02  -2.01281880E-09
   2.25000009E-02  -2.21911045E-09
   2.30000000E-02  -2.39870590E-09
   2.34999992E-02  -2.53962895E-09
   2.40000002E-02  -2.63030286E-09
   2.44999994E-02  -2.66032374E-09
   2.50000004E-02  -2.62125632E-09
   2.54999995E-02  -2.50740895E-09
   2.60000005E-02  -2.31653052E-09
   2.64999997E-02  -2.05038475E-09
   2.70000007E-02  -1.71514958E-09
   2.74999999E-02  -1.32160372E-09
   2.80000009E-02  -8.85069351E-10
   2.85000000E-02  -4.25092989E-10
   2.89999992E-02   3.51401443E-11
   2.95000002E-02   4.69641659E-10
   2.99999993E-02   8.50680748E-10
   3.05000003E-02   1.15002219E-09
   3.09999995E-02   1.34028744E-09
   3.15000005E-02   1.39636369E-09
   3.20000015E-02   1.29679179E-09
   3.24999988E-02   1.02504583E-09
   3.29999998E-02   5.70631820E-10
   3.35000008E-02  -7.00699429E-11
   3.40000018E-02  -8.93280616E-10
   3.44999991E-02  -1.88766158E-09
   3.50000001E-02  -3.03454706E-09
   3.55000012E-02  -4.30857527E-09
   3.59999985E-02  -5.67870728E-09
   3.64999995E-02  -7.10959291E-09
   3.70000005E-02  -8.56322835E-09
   3.75000015E-02  -1.00008277E-08
   3.79999988E-02  -1.13848175E-08
   3.84999998E-02  -1.26808528E-08
   3.90000008E-02  -1.38597498E-08
   3.95000018E-02  -1.48992276E-08
   3.99999991E-02  -1.57853624E-08
   4.05000001E-02  -1.65136651E-08
   4.10000011E-02  -1.70897376E-08
   4.14999984E-02  -1.75294073E-08
   4.19999994E-02  -1.78584010E-08
   4.25000004E-02  -1.81114927E-08
   4.30000015E-02  -1.83311979E-08
   4.34999987E-02  -1.85660607E-08
   4.39999998E-02  -1.88686400E-08
   4.45000008E-02  -1.92932426E-08
   4.50000018E-02  -1.98935890E-08
   4.54999991E-02  -2.07204636E-08
   4.60000001E-02  -2.18195364E-08
   4.65000011E-02  -2.32294077E-08
   4.69999984E-02  -2.49800287E-08
   4.74999994E-02  -2.70915628E-08
   4.80000004E-02  -2.95737461E-08
   4.85000014E-02  -3.24257741E-08
   4.89999987E-02  -3.56367522E-08
   4.94999997E-02  -3.91866450E-08
   5.00000007E-02  -4.30477165E-08
   5.05000018E-02  -4.71863331E-08
   5.09999990E-02  -5.15650953E-08
   5.15000001E-02  -5.61451472E-08
   5.20000011E-02  -6.08885387E-08
   5.24999984E-02  -6.57605455E-08
   5.29999994E-02  -7.07318151E-08
   5.35000004E-02  -7.57802567E-08
   5.40000014E-02  -8.08925051E-08
   5.44999987E-02  -8.60650360E-08
   5.49999997E-02  -9.13047131E-08
   5.55000007E-02  -9.66289164E-08
   5.60000017E-02  -1.02065144E-07
   5.64999990E-02  -1.07650180E-07
   5.70000000E-02  -1.13428925E-07
   5.75000010E-02  -1.19452821E-07
   5.79999983E-02  -1.25778229E-07
   5.84999993E-02  -1.32464507E-07
   5.90000004E-02  -1.39572293E-07
   5.95000014E-02  -1.47161771E-07
   5.99999987E-02  -1.55291190E-07
   6.04999997E-02  -1.64015617E-07
   6.10000007E-02  -1.73386127E-07
   6.15000017E-02  -1.83449330E-07
   6.19999990E-02  -1.94247221E-07
   6.25000000E-02  -2.05817571E-07
   6.30000010E-02  -2.18194614E-07
   6.35000020E-02  -2.31409928E-07
   6.40000030E-02  -2.45493879E-07
   6.44999966E-02  -2.60476781E-07
   6.49999976E-02  -2.76390551E-07
   6.54999986E-02  -2.93270148E-07
   6.59999996E-02  -3.11155048E-07
   6.65000007E-02  -3.30090188E-07
   6.70000017E-02  -3.50127380E-07
   6.75000027E-02  -3.71325683E-07
   6.80000037E-02  -3.93752089E-07
   6.84999973E-02  -4.17481488E-07
   6.89999983E-02  -4.42596530E-07
   6.94999993E-02  -4.69187285E-07
   7.00000003E-02  -4.97350413E-07
   7.05000013E-02  -5.27188377E-07
   7.10000023E-02  -5.58808722E-07
   7.15000033E-02  -5.92322863E-07
   7.19999969E-02  -6.27845225E-07
   7.24999979E-02  -6.65492848E-07
   7.29999989E-02  -7.05384309E-07
   7.34999999E-02  -7.47639433E-07
   7.40000010E-02  -7.92379637E-07
   7.45000020E-02  -8.39727647E-07
   7.50000030E-02  -8.89808007E-07
   7.54999965E-02  -9.42748102E-07
   7.59999976E-02  -9.98679070E-07
   7.64999986E-02  -1.05773699E-06
   7.69999996E-02  -1.12006387E-06
   7.75000006E-02  -1.18581022E-06
   7.80000016E-02  -1.25513532E-06
   7.85000026E-02  -1.32820958E-06
   7.90000036E-02  -1.40521604E-06
   7.94999972E-02  -1.48635093E-06
   7.99999982E-02  -1.57182592E-06
   8.04999992E-02  -1.66186885E-06
   8.10000002E-02  -1.75672392E-06
   8.15000013E-02  -1.85665351E-06
   8.20000023E-02  -1.96193741E-06
   8.25000033E-02  -2.07287371E-06
   8.29999968E-02  -2.18977925E-06
   8.34999979E-02  -2.31298895E-06
   8.39999989E-02  -2.44285616E-06
   8.44999999E-02  -2.57975239E-06
   8.50000009E-02  -2.72406692E-06
   8.55000019E-02  -2.87620787E-06
   8.60000029E-02  -3.03660067E-06
   8.64999965E-02  -3.20568938E-06
   8.69999975E-02  -3.38393647E-06
   8.74999985E-02  -3.57182307E-06
   8.79999995E-02  -3.76985076E-06
   8.85000005E-02  -3.97854001E-06
   8.90000015E-02  -4.19843400E-06
   8.95000026E-02  -4.43009822E-06
   9.00000036E-02  -4.67412019E-06
   9.04999971E-02  -4.93111565E-06
   9.09999982E-02  -5.20172489E-06
   9.14999992E-02  -5.48661637E-06
   9.20000002E-02  -5.78649042E-06
   9.25000012E-02  -6.10207780E-06
   9.30000022E-02  -6.43414342E-06
   9.35000032E-02  -6.78348806E-06
   9.39999968E-02  -7.15095030E-06
   9.44999978E-02  -7.53740687E-06
   9.49999988E-02  -7.94377775E-06
   9.54999998E-02  -8.37102561E-06
   9.60000008E-02  -8.82015865E-06
   9.65000018E-02  -9.29223370E-06
   9.70000029E-02  -9.78835487E-06
   9.74999964E-02  -1.03096818E-05
   9.79999974E-02  -1.08574259E-05
   9.84999985E-02  -1.14328550E-05
   9.89999995E-02  -1.20372961E-05
   9.95000005E-02  -1.26721361E-05
  0.100000001      -1.33388276E-05
  0.100500003      -1.40388875E-05
  0.101000004      -1.47739001E-05
  0.101499997      -1.55455273E-05
  0.101999998      -1.63554923E-05
  0.102499999      -1.72056079E-05
  0.103000000      -1.80977604E-05
  0.103500001      -1.90339197E-05
  0.104000002      -2.00161430E-05
  0.104500003      -2.10465751E-05
  0.104999997      -2.21274568E-05
  0.105499998      -2.32611201E-05
  0.105999999      -2.44500043E-05
  0.106500000      -2.56966468E-05
  0.107000001      -2.70036926E-05
  0.107500002      -2.83739028E-05
  0.108000003      -2.98101531E-05
  0.108499996      -3.13154378E-05
  0.108999997      -3.28928800E-05
  0.109499998      -3.45457338E-05
  0.109999999      -3.62773790E-05
  0.110500000      -3.80913443E-05
  0.111000001      -3.99913042E-05
  0.111500002      -4.19810749E-05
  0.112000003      -4.40646363E-05
  0.112499997      -4.62461285E-05
  0.112999998      -4.85298515E-05
  0.113499999      -5.09202873E-05
  0.114000000      -5.34220999E-05
  0.114500001      -5.60401313E-05
  0.115000002      -5.87794129E-05
  0.115500003      -6.16451871E-05
  0.115999997      -6.46428962E-05
  0.116499998      -6.77782009E-05
  0.116999999      -7.10569948E-05
  0.117500000      -7.44853678E-05
  0.118000001      -7.80696791E-05
  0.118500002      -8.18165281E-05
  0.119000003      -8.57327541E-05
  0.119499996      -8.98254948E-05
  0.119999997      -9.41021281E-05
  0.120499998      -9.85703373E-05
  0.120999999      -1.03238097E-04
  0.121500000      -1.08113665E-04
  0.122000001      -1.13205642E-04
  0.122500002      -1.18522948E-04
  0.123000003      -1.24074824E-04
  0.123499997      -1.29870867E-04
  0.123999998      -1.35921015E-04
  0.124499999      -1.42235585E-04
  0.125000000      -1.48825246E-04
  0.125499994      -1.55701113E-04
  0.126000002      -1.62874654E-04
  0.126499996      -1.70357787E-04
  0.127000004      -1.78162823E-04
  0.127499998      -1.86302495E-04
  0.128000006      -1.94790060E-04
  0.128500000      -2.03639167E-04
  0.128999993      -2.12863975E-04
  0.129500002      -2.22479139E-04
  0.129999995      -2.32499777E-04
  0.130500004      -2.42941620E-04
  0.130999997      -2.53820879E-04
  0.131500006      -2.65154289E-04
  0.131999999      -2.76959181E-04
  0.132499993      -2.89253512E-04
  0.133000001      -3.02055792E-04
  0.133499995      -3.15385143E-04
  0.134000003      -3.29261413E-04
  0.134499997      -3.43705004E-04
  0.135000005      -3.58736987E-04
  0.135499999      -3.74379248E-04
  0.136000007      -3.90654197E-04
  0.136500001      -4.07585205E-04
  0.136999995      -4.25196165E-04
  0.137500003      -4.43511846E-04
  0.137999997      -4.62557829E-04
  0.138500005      -4.82360512E-04
  0.138999999      -5.02946903E-04
  0.139500007      -5.24345203E-04
  0.140000001      -5.46584197E-04
  0.140499994      -5.69693628E-04
  0.141000003      -5.93704230E-04
  0.141499996      -6.18647435E-04
  0.142000005      -6.44556014E-04
  0.142499998      -6.71463320E-04
  0.143000007      -6.99403870E-04
  0.143500000      -7.28413230E-04
  0.143999994      -7.58527895E-04
  0.144500002      -7.89785467E-04
  0.144999996      -8.22224712E-04
  0.145500004      -8.55885330E-04
  0.145999998      -8.90808238E-04
  0.146500006      -9.27035580E-04
  0.147000000      -9.64610430E-04
  0.147499993      -1.00357726E-03
  0.148000002      -1.04398187E-03
  0.148499995      -1.08587102E-03
  0.149000004      -1.12929265E-03
  0.149499997      -1.17429660E-03
  0.150000006      -1.22093328E-03
  0.150500000      -1.26925495E-03
  0.150999993      -1.31931482E-03
  0.151500002      -1.37116783E-03
  0.151999995      -1.42487010E-03
  0.152500004      -1.48047926E-03
  0.152999997      -1.53805444E-03
  0.153500006      -1.59765629E-03
  0.153999999      -1.65934640E-03
  0.154499993      -1.72318821E-03
  0.155000001      -1.78924715E-03
  0.155499995      -1.85758946E-03
  0.156000003      -1.92828337E-03
  0.156499997      -2.00139871E-03
  0.157000005      -2.07700650E-03
  0.157499999      -2.15517939E-03
  0.158000007      -2.23599211E-03
  0.158500001      -2.31952081E-03
  0.158999994      -2.40584323E-03
  0.159500003      -2.49503925E-03
  0.159999996      -2.58718943E-03
  0.160500005      -2.68237689E-03
  0.160999998      -2.78068637E-03
  0.161500007      -2.88220379E-03
  0.162000000      -2.98701762E-03
  0.162499994      -3.09521751E-03
  0.163000003      -3.20689473E-03
  0.163499996      -3.32214264E-03
  0.164000005      -3.44105647E-03
  0.164499998      -3.56373237E-03
  0.165000007      -3.69026954E-03
  0.165500000      -3.82076786E-03
  0.165999994      -3.95532930E-03
  0.166500002      -4.09405818E-03
  0.166999996      -4.23705950E-03
  0.167500004      -4.38444130E-03
  0.167999998      -4.53631161E-03
  0.168500006      -4.69278172E-03
  0.169000000      -4.85396385E-03
  0.169499993      -5.01997257E-03
  0.170000002      -5.19092241E-03
  0.170499995      -5.36693214E-03
  0.171000004      -5.54812048E-03
  0.171499997      -5.73460758E-03
  0.172000006      -5.92651591E-03
  0.172499999      -6.12396887E-03
  0.172999993      -6.32709172E-03
  0.173500001      -6.53601158E-03
  0.173999995      -6.75085699E-03
  0.174500003      -6.97175600E-03
  0.174999997      -7.19884038E-03
  0.175500005      -7.43224146E-03
  0.175999999      -7.67209241E-03
  0.176499993      -7.91852921E-03
  0.177000001      -8.17168783E-03
  0.177499995      -8.43170192E-03
  0.178000003      -8.69871210E-03
  0.178499997      -8.97285715E-03
  0.179000005      -9.25427396E-03
  0.179499999      -9.54310503E-03
  0.180000007      -9.83949099E-03
  0.180500001      -1.01435734E-02
  0.180999994      -1.04554938E-02
  0.181500003      -1.07753957E-02
  0.181999996      -1.11034205E-02
  0.182500005      -1.14397127E-02
  0.182999998      -1.17844138E-02
  0.183500007      -1.21376691E-02
  0.184000000      -1.24996202E-02
  0.184499994      -1.28704105E-02
  0.185000002      -1.32501833E-02
  0.185499996      -1.36390803E-02
  0.186000004      -1.40372431E-02
  0.186499998      -1.44448113E-02
  0.187000006      -1.48619264E-02
  0.187500000      -1.52887264E-02
  0.187999994      -1.57253481E-02
  0.188500002      -1.61719304E-02
  0.188999996      -1.66286081E-02
  0.189500004      -1.70955099E-02
  0.189999998      -1.75727718E-02
  0.190500006      -1.80605184E-02
  0.191000000      -1.85588822E-02
  0.191499993      -1.90679841E-02
  0.192000002      -1.95879471E-02
  0.192499995      -2.01188922E-02
  0.193000004      -2.06609350E-02
  0.193499997      -2.12141871E-02
  0.194000006      -2.17787586E-02
  0.194499999      -2.23547537E-02
  0.194999993      -2.29422804E-02
  0.195500001      -2.35414337E-02
  0.195999995      -2.41523068E-02
  0.196500003      -2.47749873E-02
  0.196999997      -2.54095644E-02
  0.197500005      -2.60561146E-02
  0.197999999      -2.67147124E-02
  0.198500007      -2.73854267E-02
  0.199000001      -2.80683190E-02
  0.199499995      -2.87634451E-02
  0.200000003      -2.94708647E-02
  0.200499997      -3.01906150E-02
  0.201000005      -3.09227351E-02
  0.201499999      -3.16672549E-02
  0.202000007      -3.24242003E-02
  0.202500001      -3.31935808E-02
  0.202999994      -3.39754112E-02
  0.203500003      -3.47696804E-02
  0.203999996      -3.55763920E-02
  0.204500005      -3.63955200E-02
  0.204999998      -3.72270383E-02
  0.205500007      -3.80709134E-02
  0.206000000      -3.89270931E-02
  0.206499994      -3.97955291E-02
  0.207000002      -4.06761467E-02
  0.207499996      -4.15688753E-02
  0.208000004      -4.24736254E-02
  0.208499998      -4.33902964E-02
  0.209000006      -4.43187766E-02
  0.209500000      -4.52589467E-02
  0.209999993      -4.62106653E-02
  0.210500002      -4.71737944E-02
  0.210999995      -4.81481701E-02
  0.211500004      -4.91336249E-02
  0.211999997      -5.01299687E-02
  0.212500006      -5.11370040E-02
  0.213000000      -5.21545149E-02
  0.213499993      -5.31822816E-02
  0.214000002      -5.42200506E-02
  0.214499995      -5.52675799E-02
  0.215000004      -5.63245937E-02
  0.215499997      -5.73908016E-02
  0.216000006      -5.84659167E-02
  0.216499999      -5.95496036E-02
  0.216999993      -6.06415384E-02
  0.217500001      -6.17413707E-02
  0.217999995      -6.28487319E-02
  0.218500003      -6.39632493E-02
  0.218999997      -6.50845170E-02
  0.219500005      -6.62121251E-02
  0.219999999      -6.73456490E-02
  0.220500007      -6.84846193E-02
  0.221000001      -6.96285814E-02
  0.221499994      -7.07770512E-02
  0.222000003      -7.19295219E-02
  0.222499996      -7.30854794E-02
  0.223000005      -7.42443800E-02
  0.223499998      -7.54056722E-02
  0.224000007      -7.65687674E-02
  0.224500000      -7.77330846E-02
  0.224999994      -7.88980052E-02
  0.225500003      -8.00629109E-02
  0.225999996      -8.12271386E-02
  0.226500005      -8.23900402E-02
  0.226999998      -8.35509151E-02
  0.227500007      -8.47090632E-02
  0.228000000      -8.58637616E-02
  0.228499994      -8.70142728E-02
  0.229000002      -8.81598368E-02
  0.229499996      -8.92996714E-02
  0.230000004      -9.04329866E-02
  0.230499998      -9.15589705E-02
  0.231000006      -9.26767886E-02
  0.231500000      -9.37855914E-02
  0.231999993      -9.48845148E-02
  0.232500002      -9.59726945E-02
  0.232999995      -9.70492065E-02
  0.233500004      -9.81131345E-02
  0.233999997      -9.91635546E-02
  0.234500006     -0.100199521    
  0.234999999     -0.101220064    
  0.235499993     -0.102224201    
  0.236000001     -0.103210941    
  0.236499995     -0.104179271    
  0.237000003     -0.105128169    
  0.237499997     -0.106056601    
  0.238000005     -0.106963508    
  0.238499999     -0.107847840    
  0.238999993     -0.108708508    
  0.239500001     -0.109544434    
  0.239999995     -0.110354520    
  0.240500003     -0.111137658    
  0.240999997     -0.111892730    
  0.241500005     -0.112618618    
  0.241999999     -0.113314174    
  0.242500007     -0.113978259    
  0.243000001     -0.114609726    
  0.243499994     -0.115207411    
  0.244000003     -0.115770169    
  0.244499996     -0.116296828    
  0.245000005     -0.116786212    
  0.245499998     -0.117237143    
  0.246000007     -0.117648467    
  0.246500000     -0.118018992    
  0.246999994     -0.118347548    
  0.247500002     -0.118632965    
  0.247999996     -0.118874058    
  0.248500004     -0.119069658    
  0.248999998     -0.119218610    
  0.249500006     -0.119319752    
  0.250000000     -0.119371928    
  0.250499994     -0.119374000    
  0.250999987     -0.119324818    
  0.251500010     -0.119223244    
  0.252000004     -0.119068161    
  0.252499998     -0.118858464    
  0.252999991     -0.118593074    
  0.253500015     -0.118270896    
  0.254000008     -0.117890880    
  0.254500002     -0.117451966    
  0.254999995     -0.116953120    
  0.255499989     -0.116393335    
  0.256000012     -0.115771621    
  0.256500006     -0.115087003    
  0.256999999     -0.114338532    
  0.257499993     -0.113525286    
  0.257999986     -0.112646379    
  0.258500010     -0.111700915    
  0.259000003     -0.110688075    
  0.259499997     -0.109607026    
  0.259999990     -0.108456992    
  0.260500014     -0.107237220    
  0.261000007     -0.105946980    
  0.261500001     -0.104585603    
  0.261999995     -0.103152432    
  0.262499988     -0.101646848    
  0.263000011     -0.100068279    
  0.263500005      -9.84162018E-02
  0.263999999      -9.66900960E-02
  0.264499992      -9.48895365E-02
  0.264999986      -9.30140913E-02
  0.265500009      -9.10634100E-02
  0.266000003      -8.90371576E-02
  0.266499996      -8.69350731E-02
  0.266999990      -8.47569257E-02
  0.267500013      -8.25025290E-02
  0.268000007      -8.01717639E-02
  0.268500000      -7.77645558E-02
  0.268999994      -7.52808675E-02
  0.269499987      -7.27207437E-02
  0.270000011      -7.00842366E-02
  0.270500004      -6.73715174E-02
  0.270999998      -6.45827502E-02
  0.271499991      -6.17181957E-02
  0.272000015      -5.87781519E-02
  0.272500008      -5.57629801E-02
  0.273000002      -5.26731089E-02
  0.273499995      -4.95090112E-02
  0.273999989      -4.62712348E-02
  0.274500012      -4.29603718E-02
  0.275000006      -3.95770967E-02
  0.275500000      -3.61221284E-02
  0.275999993      -3.25962529E-02
  0.276499987      -2.90003195E-02
  0.277000010      -2.53352430E-02
  0.277500004      -2.16019992E-02
  0.277999997      -1.78016275E-02
  0.278499991      -1.39352297E-02
  0.279000014      -1.00039765E-02
  0.279500008      -6.00909488E-03
  0.280000001      -1.95188273E-03
  0.280499995       2.16629962E-03
  0.280999988       6.34403666E-03
  0.281500012       1.05798272E-02
  0.282000005       1.48721365E-02
  0.282499999       1.92193389E-02
  0.282999992       2.36197654E-02
  0.283499986       2.80716773E-02
  0.284000009       3.25732753E-02
  0.284500003       3.71226966E-02
  0.284999996       4.17180173E-02
  0.285499990       4.63572629E-02
  0.286000013       5.10383807E-02
  0.286500007       5.57592809E-02
  0.287000000       6.05178140E-02
  0.287499994       6.53117523E-02
  0.287999988       7.01388419E-02
  0.288500011       7.49967620E-02
  0.289000005       7.98831210E-02
  0.289499998       8.47955123E-02
  0.289999992       8.97314474E-02
  0.290499985       9.46883932E-02
  0.291000009       9.96638015E-02
  0.291500002      0.104655027    
  0.291999996      0.109659433    
  0.292499989      0.114674285    
  0.293000013      0.119696848    
  0.293500006      0.124724336    
  0.294000000      0.129753932    
  0.294499993      0.134782746    
  0.294999987      0.139807895    
  0.295500010      0.144826457    
  0.296000004      0.149835452    
  0.296499997      0.154831931    
  0.296999991      0.159812868    
  0.297500014      0.164775223    
  0.298000008      0.169715941    
  0.298500001      0.174631938    
  0.298999995      0.179520145    
  0.299499989      0.184377447    
  0.300000012      0.189200714    
  0.300500005      0.193986833    
  0.300999999      0.198732644    
  0.301499993      0.203435034    
  0.301999986      0.208090842    
  0.302500010      0.212696955    
  0.303000003      0.217250213    
  0.303499997      0.221747503    
  0.303999990      0.226185709    
  0.304500014      0.230561689    
  0.305000007      0.234872356    
  0.305500001      0.239114627    
  0.305999994      0.243285462    
  0.306499988      0.247381821    
  0.307000011      0.251400709    
  0.307500005      0.255339116    
  0.307999998      0.259194106    
  0.308499992      0.262962729    
  0.308999985      0.266642094    
  0.309500009      0.270229399    
  0.310000002      0.273721784    
  0.310499996      0.277116537    
  0.310999990      0.280410886    
  0.311500013      0.283602208    
  0.312000006      0.286687881    
  0.312500000      0.289665341    
  0.312999994      0.292532086    
  0.313499987      0.295285672    
  0.314000010      0.297923714    
  0.314500004      0.300443888    
  0.314999998      0.302843928    
  0.315499991      0.305121690    
  0.316000015      0.307275027    
  0.316500008      0.309301943    
  0.317000002      0.311200470    
  0.317499995      0.312968671    
  0.317999989      0.314604789    
  0.318500012      0.316107064    
  0.319000006      0.317473859    
  0.319499999      0.318703651    
  0.319999993      0.319794983    
  0.320499986      0.320746422    
  0.321000010      0.321556717    
  0.321500003      0.322224706    
  0.321999997      0.322749227    
  0.322499990      0.323129326    
  0.323000014      0.323364079    
  0.323500007      0.323452652    
  0.324000001      0.323394358    
  0.324499995      0.323188543    
  0.324999988      0.322834760    
  0.325500011      0.322332531    
  0.326000005      0.321681619    
  0.326499999      0.320881784    
  0.326999992      0.319932908    
  0.327499986      0.318835020    
  0.328000009      0.317588240    
  0.328500003      0.316192776    
  0.328999996      0.314648956    
  0.329499990      0.312957227    
  0.330000013      0.311118066    
  0.330500007      0.309132129    
  0.331000000      0.307000190    
  0.331499994      0.304723024    
  0.331999987      0.302301645    
  0.332500011      0.299737066    
  0.333000004      0.297030479    
  0.333499998      0.294183135    
  0.333999991      0.291196346    
  0.334500015      0.288071662    
  0.335000008      0.284810573    
  0.335500002      0.281414747    
  0.335999995      0.277886003    
  0.336499989      0.274226159    
  0.337000012      0.270437151    
  0.337500006      0.266521066    
  0.338000000      0.262479991    
  0.338499993      0.258316189    
  0.338999987      0.254031926    
  0.339500010      0.249629647    
  0.340000004      0.245111823    
  0.340499997      0.240481019    
  0.340999991      0.235739887    
  0.341500014      0.230891123    
  0.342000008      0.225937575    
  0.342500001      0.220882058    
  0.342999995      0.215727553    
  0.343499988      0.210477054    
  0.344000012      0.205133632    
  0.344500005      0.199700445    
  0.344999999      0.194180667    
  0.345499992      0.188577592    
  0.345999986      0.182894498    
  0.346500009      0.177134767    
  0.347000003      0.171301812    
  0.347499996      0.165399104    
  0.347999990      0.159430131    
  0.348500013      0.153398469    
  0.349000007      0.147307679    
  0.349500000      0.141161397    
  0.349999994      0.134963274    
  0.350499988      0.128717005    
  0.351000011      0.122426257    
  0.351500005      0.116094798    
  0.351999998      0.109726362    
  0.352499992      0.103324704    
  0.352999985       9.68936235E-02
  0.353500009       9.04368907E-02
  0.354000002       8.39582980E-02
  0.354499996       7.74616450E-02
  0.354999989       7.09507316E-02
  0.355500013       6.44293502E-02
  0.356000006       5.79012744E-02
  0.356500000       5.13702817E-02
  0.356999993       4.48401384E-02
  0.357499987       3.83145884E-02
  0.358000010       3.17973644E-02
  0.358500004       2.52921693E-02
  0.358999997       1.88026838E-02
  0.359499991       1.23325568E-02
  0.360000014       5.88541571E-03
  0.360500008      -5.35150815E-04
  0.361000001      -6.92559732E-03
  0.361499995      -1.32824043E-02
  0.361999989      -1.96021013E-02
  0.362500012      -2.58812588E-02
  0.363000005      -3.21165062E-02
  0.363499999      -3.83045040E-02
  0.363999993      -4.44419794E-02
  0.364499986      -5.05257137E-02
  0.365000010      -5.65525368E-02
  0.365500003      -6.25193417E-02
  0.365999997      -6.84230849E-02
  0.366499990      -7.42607936E-02
  0.367000014      -8.00295398E-02
  0.367500007      -8.57264772E-02
  0.368000001      -9.13488194E-02
  0.368499994      -9.68938768E-02
  0.368999988     -0.102359004    
  0.369500011     -0.107741639    
  0.370000005     -0.113039315    
  0.370499998     -0.118249610    
  0.370999992     -0.123370200    
  0.371499985     -0.128398851    
  0.372000009     -0.133333370    
  0.372500002     -0.138171718    
  0.372999996     -0.142911851    
  0.373499990     -0.147551894    
  0.374000013     -0.152089968    
  0.374500006     -0.156524390    
  0.375000000     -0.160853460    
  0.375499994     -0.165075645    
  0.375999987     -0.169189453    
  0.376500010     -0.173193499    
  0.377000004     -0.177086473    
  0.377499998     -0.180867165    
  0.377999991     -0.184534460    
  0.378500015     -0.188087314    
  0.379000008     -0.191524774    
  0.379500002     -0.194846019    
  0.379999995     -0.198050231    
  0.380499989     -0.201136753    
  0.381000012     -0.204104990    
  0.381500006     -0.206954464    
  0.381999999     -0.209684715    
  0.382499993     -0.212295428    
  0.382999986     -0.214786351    
  0.383500010     -0.217157334    
  0.384000003     -0.219408289    
  0.384499997     -0.221539229    
  0.384999990     -0.223550215    
  0.385500014     -0.225441426    
  0.386000007     -0.227213129    
  0.386500001     -0.228865594    
  0.386999995     -0.230399251    
  0.387499988     -0.231814548    
  0.388000011     -0.233112052    
  0.388500005     -0.234292358    
  0.388999999     -0.235356212    
  0.389499992     -0.236304313    
  0.389999986     -0.237137496    
  0.390500009     -0.237856701    
  0.391000003     -0.238462836    
  0.391499996     -0.238956928    
  0.391999990     -0.239340082    
  0.392500013     -0.239613414    
  0.393000007     -0.239778131    
  0.393500000     -0.239835471    
  0.393999994     -0.239786744    
  0.394499987     -0.239633307    
  0.395000011     -0.239376560    
  0.395500004     -0.239017949    
  0.395999998     -0.238558978    
  0.396499991     -0.238001153    
  0.397000015     -0.237346068    
  0.397500008     -0.236595348    
  0.398000002     -0.235750645    
  0.398499995     -0.234813631    
  0.398999989     -0.233786032    
  0.399500012     -0.232669577    
  0.400000006     -0.231466085    
  0.400500000     -0.230177298    
  0.400999993     -0.228805065    
  0.401499987     -0.227351263    
  0.402000010     -0.225817770    
  0.402500004     -0.224206433    
  0.402999997     -0.222519174    
  0.403499991     -0.220757917    
  0.404000014     -0.218924567    
  0.404500008     -0.217021093    
  0.405000001     -0.215049431    
  0.405499995     -0.213011533    
  0.405999988     -0.210909367    
  0.406500012     -0.208744898    
  0.407000005     -0.206520095    
  0.407499999     -0.204236910    
  0.407999992     -0.201897308    
  0.408499986     -0.199503228    
  0.409000009     -0.197056636    
  0.409500003     -0.194559485    
  0.409999996     -0.192013681    
  0.410499990     -0.189421177    
  0.411000013     -0.186783865    
  0.411500007     -0.184103638    
  0.412000000     -0.181382403    
  0.412499994     -0.178621992    
  0.412999988     -0.175824299    
  0.413500011     -0.172991142    
  0.414000005     -0.170124307    
  0.414499998     -0.167225629    
  0.414999992     -0.164296865    
  0.415499985     -0.161339745    
  0.416000009     -0.158355996    
  0.416500002     -0.155347332    
  0.416999996     -0.152315423    
  0.417499989     -0.149261922    
  0.418000013     -0.146188453    
  0.418500006     -0.143096596    
  0.419000000     -0.139987946    
  0.419499993     -0.136864007    
  0.419999987     -0.133726299    
  0.420500010     -0.130576298    
  0.421000004     -0.127415463    
  0.421499997     -0.124245204    
  0.421999991     -0.121066898    
  0.422500014     -0.117881909    
  0.423000008     -0.114691563    
  0.423500001     -0.111497156    
  0.423999995     -0.108299948    
  0.424499989     -0.105101168    
  0.425000012     -0.101902016    
  0.425500005      -9.87036526E-02
  0.425999999      -9.55072194E-02
  0.426499993      -9.23138186E-02
  0.426999986      -8.91245231E-02
  0.427500010      -8.59403685E-02
  0.428000003      -8.27623829E-02