   0.00000000       0.00000000    
   5.00000024E-04   0.00000000    
   1.00000005E-03   0.00000000    
   1.50000001E-03  -2.48343521E-14
   2.00000009E-03  -1.64151367E-13
   2.49999994E-03  -6.08307783E-13
   3.00000003E-03  -1.65563385E-12
   3.50000011E-03  -3.66719545E-12
   4.00000019E-03  -6.95264332E-12
   4.49999981E-03  -1.15847002E-11
   4.99999989E-03  -1.71586183E-11
   5.49999997E-03  -2.25341499E-11
   6.00000005E-03  -2.56174162E-11
   6.50000013E-03  -2.32548390E-11
   7.00000022E-03  -1.13166776E-11
   7.49999983E-03   1.49576653E-11
   8.00000038E-03   6.03033318E-11
   8.50000046E-03   1.28447072E-10
   8.99999961E-03   2.20831936E-10
   9.49999969E-03   3.35142275E-10
   9.99999978E-03   4.63783623E-10
   1.04999999E-02   5.92529859E-10
   1.09999999E-02   6.99598213E-10
   1.15000000E-02   7.55436380E-10
   1.20000001E-02   7.23498761E-10
   1.25000002E-02   5.62258518E-10
   1.30000003E-02   2.28607563E-10
   1.35000004E-02  -3.17307930E-10
   1.40000004E-02  -1.10593712E-09
   1.44999996E-02  -2.15114904E-09
   1.49999997E-02  -3.44254136E-09
   1.54999997E-02  -4.93788255E-09
   1.60000008E-02  -6.55658638E-09
   1.64999999E-02  -8.17514323E-09
   1.70000009E-02  -9.62555102E-09
   1.75000001E-02  -1.06977138E-08
   1.79999992E-02  -1.11466631E-08
   1.85000002E-02  -1.07051807E-08
   1.89999994E-02  -9.10198850E-09
   1.95000004E-02  -6.08540018E-09
   1.99999996E-02  -1.45146584E-09
   2.05000006E-02   4.92460650E-09
   2.09999997E-02   1.30557982E-08
   2.15000007E-02   2.28118449E-08
   2.19999999E-02   3.38919932E-08
   2.25000009E-02   4.58051375E-08
   2.30000000E-02   5.78605750E-08
   2.34999992E-02   6.91725930E-08
   2.40000002E-02   7.86812251E-08
   2.44999994E-02   8.51913740E-08
   2.50000004E-02   8.74308128E-08
   2.54999995E-02   8.41265191E-08
   2.60000005E-02   7.40975352E-08
   2.64999997E-02   5.63605340E-08
   2.70000007E-02   3.02426706E-08
   2.74999999E-02  -4.50465487E-09
   2.80000009E-02  -4.75995066E-08
   2.85000000E-02  -9.81394308E-08
   2.89999992E-02  -1.54536849E-07
   2.95000002E-02  -2.14489134E-07
   2.99999993E-02  -2.74991379E-07
   3.05000003E-02  -3.32398145E-07
   3.09999995E-02  -3.82539326E-07
   3.15000005E-02  -4.20889364E-07
   3.20000015E-02  -4.42790025E-07
   3.24999988E-02  -4.43718477E-07
   3.29999998E-02  -4.19591544E-07
   3.35000008E-02  -3.67092269E-07
   3.40000018E-02  -2.84000180E-07
   3.44999991E-02  -1.69506862E-07
   3.50000001E-02  -2.44921363E-08
   3.55000012E-02   1.48259588E-07
   3.59999985E-02   3.43926359E-07
   3.64999995E-02   5.55618215E-07
   3.70000005E-02   7.74465775E-07
   3.75000015E-02   9.89838327E-07
   3.79999988E-02   1.18969524E-06
   3.84999998E-02   1.36106746E-06
   3.90000008E-02   1.49065738E-06
   3.95000018E-02   1.56553529E-06
   3.99999991E-02   1.57390582E-06
   4.05000001E-02   1.50590472E-06
   4.10000011E-02   1.35438700E-06
   4.14999984E-02   1.11565589E-06
   4.19999994E-02   7.90089075E-07
   4.25000004E-02   3.82609329E-07
   4.30000015E-02  -9.70398517E-08
   4.34999987E-02  -6.34253979E-07
   4.39999998E-02  -1.20978655E-06
   4.45000008E-02  -1.80024335E-06
   4.50000018E-02  -2.37885638E-06
   4.54999991E-02  -2.91651327E-06
   4.60000001E-02  -3.38301970E-06
   4.65000011E-02  -3.74854494E-06
   4.69999984E-02  -3.98518250E-06
   4.74999994E-02  -4.06856270E-06
   4.80000004E-02  -3.97941994E-06
   4.85000014E-02  -3.70504449E-06
   4.89999987E-02  -3.24050575E-06
   4.94999997E-02  -2.58958858E-06
   5.00000007E-02  -1.76534695E-06
   5.05000018E-02  -7.90228796E-07
   5.09999990E-02   3.04277364E-07
   5.15000001E-02   1.47848505E-06
   5.20000011E-02   2.68583995E-06
   5.24999984E-02   3.87469572E-06
   5.29999994E-02   4.99048065E-06
   5.35000004E-02   5.97816643E-06
   5.40000014E-02   6.78492233E-06
   5.44999987E-02   7.36284164E-06
   5.49999997E-02   7.67158508E-06
   5.55000007E-02   7.68081736E-06
   5.60000017E-02   7.37227811E-06
   5.64999990E-02   6.74136709E-06
   5.70000000E-02   5.79812968E-06
   5.75000010E-02   4.56756879E-06
   5.79999983E-02   3.08919903E-06
   5.84999993E-02   1.41586838E-06
   5.90000004E-02  -3.88166171E-07
   5.95000014E-02  -2.24982659E-06
   5.99999987E-02  -4.09037011E-06
   6.04999997E-02  -5.82897383E-06
   6.10000007E-02  -7.38658537E-06
   6.15000017E-02  -8.68984534E-06
   6.19999990E-02  -9.67487813E-06
   6.25000000E-02  -1.02907652E-05
   6.30000010E-02  -1.05024774E-05
   6.35000020E-02  -1.02931072E-05
   6.40000030E-02  -9.66525567E-06
   6.44999966E-02  -8.64147205E-06
   6.49999976E-02  -7.26366761E-06
   6.54999986E-02  -5.59150840E-06
   6.59999996E-02  -3.69984605E-06
   6.65000007E-02  -1.67526730E-06
   6.70000017E-02   3.88083208E-07
   6.75000027E-02   2.39318979E-06
   6.80000037E-02   4.24515565E-06
   6.84999973E-02   5.85622956E-06
   6.89999983E-02   7.15058150E-06
   6.94999993E-02   8.06860589E-06
   7.00000003E-02   8.57045325E-06
   7.05000013E-02   8.63861351E-06
   7.10000023E-02   8.27935219E-06
   7.15000033E-02   7.52289452E-06
   7.19999969E-02   6.42230270E-06
   7.24999979E-02   5.05105527E-06
   7.29999989E-02   3.49941206E-06
   7.34999999E-02   1.86973637E-06
   7.40000010E-02   2.70963483E-07
   7.45000020E-02  -1.18749324E-06
   7.50000030E-02  -2.40209215E-06
   7.54999965E-02  -3.28144824E-06
   7.59999976E-02  -3.75217928E-06
   7.64999986E-02  -3.76400180E-06
   7.69999996E-02  -3.29376417E-06
   7.75000006E-02  -2.34814070E-06
   7.80000016E-02  -9.64796754E-07
   7.85000026E-02   7.88101602E-07
   7.90000036E-02   2.81409461E-06
   7.94999972E-02   4.99230418E-06
   7.99999982E-02   7.18283673E-06
   8.04999992E-02   9.23350308E-06
   8.10000002E-02   1.09875800E-05
   8.15000013E-02   1.22922102E-05
   8.20000023E-02   1.30070648E-05
   8.25000033E-02   1.30128456E-05
   8.29999968E-02   1.22191232E-05
   8.34999979E-02   1.05711233E-05
   8.39999989E-02   8.05505169E-06
   8.44999999E-02   4.70163013E-06
   8.50000009E-02   5.87546367E-07
   8.55000019E-02  -4.16530793E-06
   8.60000029E-02  -9.39289566E-06
   8.64999965E-02  -1.48943536E-05
   8.69999975E-02  -2.04393818E-05
   8.74999985E-02  -2.57774627E-05
   8.79999995E-02  -3.06485090E-05
   8.85000005E-02  -3.47945461E-05
   8.90000015E-02  -3.79717894E-05
   8.95000026E-02  -3.99627315E-05
   9.00000036E-02  -4.05874562E-05
   9.04999971E-02  -3.97138028E-05
   9.09999982E-02  -3.72656978E-05
   9.14999992E-02  -3.32292548E-05
   9.20000002E-02  -2.76563314E-05
   9.25000012E-02  -2.06651257E-05
   9.30000022E-02  -1.24378294E-05
   9.35000032E-02  -3.21521429E-06
   9.39999968E-02   6.71156477E-06
   9.44999978E-02   1.70118492E-05
   9.49999988E-02   2.73284859E-05
   9.54999998E-02   3.72924296E-05
   9.60000008E-02   4.65384583E-05
   9.65000018E-02   5.47211966E-05
   9.70000029E-02   6.15307508E-05
   9.74999964E-02   6.67072527E-05
   9.79999974E-02   7.00535238E-05
   9.84999985E-02   7.14454800E-05
   9.89999995E-02   7.08393563E-05
   9.95000005E-02   6.82757454E-05
  0.100000001       6.38798374E-05
  0.100500003       5.78579820E-05
  0.101000004       5.04905911E-05
  0.101499997       4.21215882E-05
  0.101999998       3.31446608E-05
  0.102499999       2.39873552E-05
  0.103000000       1.50929700E-05
  0.103500001       6.90175648E-06
  0.104000002      -1.68313946E-07
  0.104500003      -5.73994657E-06
  0.104999997      -9.49352398E-06
  0.105499998      -1.11816453E-05
  0.105999999      -1.06406660E-05
  0.106500000      -7.79882976E-06
  0.107000001      -2.68010717E-06
  0.107500002       4.59616649E-06
  0.108000003       1.38196510E-05
  0.108499996       2.46981017E-05
  0.108999997       3.68696055E-05
  0.109499998       4.99185335E-05
  0.109999999       6.33939562E-05
  0.110500000       7.68296377E-05
  0.111000001       8.97653590E-05
  0.111500002       1.01767509E-04
  0.112000003       1.12449292E-04
  0.112499997       1.21488352E-04
  0.112999998       1.28642292E-04
  0.113499999       1.33760084E-04
  0.114000000       1.36789924E-04
  0.114500001       1.37782743E-04
  0.115000002       1.36890900E-04
  0.115500003       1.34362184E-04
  0.115999997       1.30530869E-04
  0.116499998       1.25804072E-04
  0.116999999       1.20644785E-04
  0.117500000       1.15553295E-04
  0.118000001       1.11047571E-04
  0.118500002       1.07641914E-04
  0.119000003       1.05826606E-04
  0.119499996       1.06050087E-04
  0.119999997       1.08701897E-04
  0.120499998       1.14098330E-04
  0.120999999       1.22473095E-04
  0.121500000       1.33971756E-04
  0.122000001       1.48647363E-04
  0.122500002       1.66464990E-04
  0.123000003       1.87306214E-04
  0.123499997       2.10979444E-04
  0.123999998       2.37231652E-04
  0.124499999       2.65762588E-04
  0.125000000       2.96243845E-04
  0.125499994       3.28333495E-04
  0.126000002       3.61696177E-04
  0.126499996       3.96017742E-04
  0.127000004       4.31021705E-04
  0.127499998       4.66482015E-04
  0.128000006       5.02233743E-04
  0.128500000       5.38183434E-04
  0.128999993       5.74309845E-04
  0.129500002       6.10669784E-04
  0.129999995       6.47395384E-04
  0.130500004       6.84690429E-04
  0.130999997       7.22823490E-04
  0.131500006       7.62122509E-04
  0.131999999       8.02961004E-04
  0.132499993       8.45753122E-04
  0.133000001       8.90935946E-04
  0.133499995       9.38963611E-04
  0.134000003       9.90295084E-04
  0.134499997       1.04538398E-03
  0.135000005       1.10467244E-03
  0.135499999       1.16857688E-03
  0.136000007       1.23748730E-03
  0.136500001       1.31176598E-03
  0.136999995       1.39173423E-03
  0.137500003       1.47767877E-03
  0.137999997       1.56984897E-03
  0.138500005       1.66845822E-03
  0.138999999       1.77367870E-03
  0.139500007       1.88566057E-03
  0.140000001       2.00451631E-03
  0.140499994       2.13034428E-03
  0.141000003       2.26322189E-03
  0.141499996       2.40321876E-03
  0.142000005       2.55039777E-03
  0.142499998       2.70483806E-03
  0.143000007       2.86662998E-03
  0.143500000       3.03589436E-03
  0.143999994       3.21279420E-03
  0.144500002       3.39753204E-03
  0.144999996       3.59039591E-03
  0.145500004       3.79173015E-03
  0.145999998       4.00197320E-03
  0.146500006       4.22165450E-03
  0.147000000       4.45142947E-03
  0.147499993       4.69203480E-03
  0.148000002       4.94434172E-03
  0.148499995       5.20932721E-03
  0.149000004       5.48809115E-03
  0.149499997       5.78183774E-03
  0.150000006       6.09185640E-03
  0.150500000       6.41952641E-03
  0.150999993       6.76630856E-03
  0.151500002       7.13369669E-03
  0.151999995       7.52321538E-03
  0.152500004       7.93639198E-03
  0.152999997       8.37474503E-03
  0.153500006       8.83975532E-03
  0.153999999       9.33284033E-03
  0.154499993       9.85535420E-03
  0.155000001       1.04085673E-02
  0.155499995       1.09936763E-02
  0.156000003       1.16117382E-02
  0.156499997       1.22638112E-02
  0.157000005       1.29508069E-02
  0.157499999       1.36736035E-02
  0.158000007       1.44330878E-02
  0.158500001       1.52301071E-02
  0.158999994       1.60655789E-02
  0.159500003       1.69404056E-02
  0.159999996       1.78557057E-02
  0.160500005       1.88126788E-02
  0.160999998       1.98127087E-02
  0.161500007       2.08573919E-02
  0.162000000       2.19486058E-02
  0.162499994       2.30883807E-02
  0.163000003       2.42791064E-02
  0.163499996       2.55234148E-02
  0.164000005       2.68242713E-02
  0.164499998       2.81848814E-02
  0.165000007       2.96086334E-02
  0.165500000       3.10993176E-02
  0.165999994       3.26608345E-02
  0.166500002       3.42972465E-02
  0.166999996       3.60127911E-02
  0.167500004       3.78119238E-02
  0.167999998       3.96991931E-02
  0.168500006       4.16789614E-02
  0.169000000       4.37557995E-02
  0.169499993       4.59344387E-02
  0.170000002       4.82193939E-02
  0.170499995       5.06152697E-02
  0.171000004       5.31267785E-02
  0.171499997       5.57584688E-02
  0.172000006       5.85149936E-02
  0.172499999       6.14009500E-02
  0.172999993       6.44211620E-02
  0.173500001       6.75805509E-02
  0.173999995       7.08839148E-02
  0.174500003       7.43364766E-02
  0.174999997       7.79434890E-02
  0.175500005       8.17105845E-02
  0.175999999       8.56433958E-02
  0.176499993       8.97479728E-02
  0.177000001       9.40307900E-02
  0.177499995       9.84985158E-02
  0.178000003      0.103158019    
  0.178499997      0.108016677    
  0.179000005      0.113082342    
  0.179499999      0.118362658    
  0.180000007      0.123866409    
  0.180500001      0.129602417    
  0.180999994      0.135579661    
  0.181500003      0.141807616    
  0.181999996      0.148296088    
  0.182500005      0.155055508    
  0.182999998      0.162096068    
  0.183500007      0.169428959    
  0.184000000      0.177065492    
  0.184499994      0.185017526    
  0.185000002      0.193296626    
  0.185499996      0.201915190    
  0.186000004      0.210885972    
  0.186499998      0.220222041    
  0.187000006      0.229937181    
  0.187500000      0.240044579    
  0.187999994      0.250559747    
  0.188500002      0.261495590    
  0.188999996      0.272867560    
  0.189500004      0.284690440    
  0.189999998      0.296980232    
  0.190500006      0.309752494    
  0.191000000      0.323023766    
  0.191499993      0.336810589    
  0.192000002      0.351129174    
  0.192499995      0.365997285    
  0.193000004      0.381431550    
  0.193499997      0.397451133    
  0.194000006      0.414072961    
  0.194499999      0.431316286    
  0.194999993      0.449200034    
  0.195500001      0.467742860    
  0.195999995      0.486965090    
  0.196500003      0.506886661    
  0.196999997      0.527529418    
  0.197500005      0.548913360    
  0.197999999      0.571061194    
  0.198500007      0.593994677    
  0.199000001      0.617738426    
  0.199499995      0.642315924    
  0.200000003      0.667750657    
  0.200499997      0.694068551    
  0.201000005      0.721295834    
  0.201499999      0.749457955    
  0.202000007      0.778582036    
  0.202500001      0.808697522    
  0.202999994      0.839830160    
  0.203500003      0.872007966    
  0.203999996      0.905265331    
  0.204500005      0.939628661    
  0.204999998      0.975127161    
  0.205500007       1.01179278    
  0.206000000       1.04965341    
  0.206499994       1.08874226    
  0.207000002       1.12909055    
  0.207499996       1.17072785    
  0.208000004       1.21368527    
  0.208499998       1.25800121    
  0.209000006       1.30369914    
  0.209500000       1.35081649    
  0.209999993       1.39938200    
  0.210500002       1.44942844    
  0.210999995       1.50099075    
  0.211500004       1.55410326    
  0.211999997       1.60879052    
  0.212500006       1.66509354    
  0.213000000       1.72303617    
  0.213499993       1.78267097    
  0.214000002       1.84401453    
  0.214499995       1.90710616    
  0.215000004       1.97198188    
  0.215499997       2.03867173    
  0.216000006       2.10721850    
  0.216499999       2.17764711    
  0.216999993       2.24999785    
  0.217500001       2.32430196    
  0.217999995       2.40059710    
  0.218500003       2.47890568    
  0.218999997       2.55927682    
  0.219500005       2.64173460    
  0.219999999       2.72631168    
  0.220500007       2.81304598    
  0.221000001       2.90197396    
  0.221499994       2.99311328    
  0.222000003       3.08650279    
  0.222499996       3.18217111    
  0.223000005       3.28015924    
  0.223499998       3.38047719    
  0.224000007       3.48315477    
  0.224500000       3.58821511    
  0.224999994       3.69568110    
  0.225500003       3.80558324    
  0.225999996       3.91795778    
  0.226500005       4.03279018    
  0.226999998       4.15013409    
  0.227500007       4.26999903    
  0.228000000       4.39239120    
  0.228499994       4.51732206    
  0.229000002       4.64481688    
  0.229499996       4.77489901    
  0.230000004       4.90754890    
  0.230499998       5.04278612    
  0.231000006       5.18063641    
  0.231500000       5.32107544    
  0.231999993       5.46411705    
  0.232500002       5.60973549    
  0.232999995       5.75797081    
  0.233500004       5.90878773    
  0.233999997       6.06217194    
  0.234500006       6.21814251    
  0.234999999       6.37664795    
  0.235499993       6.53769684    
  0.236000001       6.70125628    
  0.236499995       6.86729717    
  0.237000003       7.03580189    
  0.237499997       7.20672703    
  0.238000005       7.38006496    
  0.238499999       7.55573893    
  0.238999993       7.73369408    
  0.239500001       7.91391420    
  0.239999995       8.09635448    
  0.240500003       8.28093815    
  0.240999997       8.46758556    
  0.241500005       8.65626335    
  0.241999999       8.84687996    
  0.242500007       9.03936291    
  0.243000001       9.23363400    
  0.243499994       9.42957401    
  0.244000003       9.62716961    
  0.244499996       9.82627678    
  0.245000005       10.0267944    
  0.245499998       10.2286186    
  0.246000007       10.4316559    
  0.246500000       10.6357803    
  0.246999994       10.8408737    
  0.247500002       11.0468016    
  0.247999996       11.2534647    
  0.248500004       11.4606781    
  0.248999998       11.6683054    
  0.249500006       11.8761787    
  0.250000000       12.0841627    
  0.250499994       12.2920446    
  0.250999987       12.4996443    
  0.251500010       12.7067881    
  0.252000004       12.9134197    
  0.252499998       13.1190844    
  0.252999991       13.3238144    
  0.253500015       13.5272684    
  0.254000008       13.7293024    
  0.254500002       13.9296360    
  0.254999995       14.1280928    
  0.255499989       14.3243494    
  0.256000012       14.5182810    
  0.256500006       14.7095537    
  0.256999999       14.8979816    
  0.257499993       15.0831518    
  0.257999986       15.2649050    
  0.258500010       15.4429121    
  0.259000003       15.6170187    
  0.259499997       15.7868910    
  0.259999990       15.9522114    
  0.260500014       16.1125965    
  0.261000007       16.2678204    
  0.261500001       16.4175968    
  0.261999995       16.5614243    
  0.262499988       16.6991634    
  0.263000011       16.8303928    
  0.263500005       16.9545746    
  0.263999999       17.0716553    
  0.264499992       17.1810455    
  0.264999986       17.2824764    
  0.265500009       17.3757362    
  0.266000003       17.4603634    
  0.266499996       17.5356846    
  0.266999990       17.6017590    
  0.267500013       17.6579266    
  0.268000007       17.7037144    
  0.268500000       17.7389755    
  0.268999994       17.7631474    
  0.269499987       17.7759876    
  0.270000011       17.7767849    
  0.270500004       17.7655602    
  0.270999998       17.7417030    
  0.271499991       17.7046375    
  0.272000015       17.6541634    
  0.272500008       17.5898609    
  0.273000002       17.5110664    
  0.273499995       17.4177246    
  0.273999989       17.3091946    
  0.274500012       17.1849651    
  0.275000006       17.0448017    
  0.275500000       16.8882122    
  0.275999993       16.7147694    
  0.276499987       16.5243435    
  0.277000010       16.3161469    
  0.277500004       16.0898609    
  0.277999997       15.8451357    
  0.278499991       15.5816040    
  0.279000014       15.2986116    
  0.279500008       14.9960785    
  0.280000001       14.6735001    
  0.280499995       14.3306437    
  0.280999988       13.9670982    
  0.281500012       13.5823164    
  0.282000005       13.1764908    
  0.282499999       12.7488556    
  0.282999992       12.2990532    
  0.283499986       11.8272181    
  0.284000009       11.3327417    
  0.284500003       10.8153257    
  0.284999996       10.2745581    
  0.285499990       9.71028042    
  0.286000013       9.12237072    
  0.286500007       8.51058292    
  0.287000000       7.87447309    
  0.287499994       7.21392775    
  0.287999988       6.52890015    
  0.288500011       5.81884861    
  0.289000005       5.08410120    
  0.289499998       4.32417488    
  0.289999992       3.53955245    
  0.290499985       2.72930765    
  0.291000009       1.89406180    
  0.291500002       1.03363121    
  0.291999996      0.147464529    
  0.292499989     -0.763647616    
  0.293000013      -1.69997060    
  0.293500006      -2.66124463    
  0.294000000      -3.64806294    
  0.294499993      -4.65923834    
  0.294999987      -5.69486475    
  0.295500010      -6.75549173    
  0.296000004      -7.84007740    
  0.296499997      -8.94897175    
  0.296999991      -10.0818796    
  0.297500014      -11.2384720    
  0.298000008      -12.4182529    
  0.298500001      -13.6205254    
  0.298999995      -14.8455009    
  0.299499989      -16.0925045    
  0.300000012      -17.3612804    
  0.300500005      -18.6510715    
  0.300999999      -19.9616356    
  0.301499993      -21.2926884    
  0.301999986      -22.6428585    
  0.302500010      -24.0124569    
  0.303000003      -25.4002705    
  0.303499997      -26.8058300    
  0.303999990      -28.2277851    
  0.304500014      -29.6658745    
  0.305000007      -31.1195774    
  0.305500001      -32.5873489    
  0.305999994      -34.0690536    
  0.306499988      -35.5632706    
  0.307000011      -37.0685959    
  0.307500005      -38.5848503    
  0.307999998      -40.1106071    
  0.308499992      -41.6452255    
  0.308999985      -43.1875153    
  0.309500009      -44.7357254    
  0.310000002      -46.2893410    
  0.310499996      -47.8471298    
  0.310999990      -49.4078941    
  0.311500013      -50.9703064    
  0.312000006      -52.5327301    
  0.312500000      -54.0950012    
  0.312999994      -55.6548691    
  0.313499987      -57.2107773    
  0.314000010      -58.7621994    
  0.314500004      -60.3072548    
  0.314999998      -61.8446121    
  0.315499991      -63.3731689    
  0.316000015      -64.8912354    
  0.316500008      -66.3972702    
  0.317000002      -67.8895340    
  0.317499995      -69.3661346    
  0.317999989      -70.8256760    
  0.318500012      -72.2666779    
  0.319000006      -73.6878357    
  0.319499999      -75.0861588    
  0.319999993      -76.4617233    
  0.320499986      -77.8122940    
  0.321000010      -79.1358109    
  0.321500003      -80.4304199    
  0.321999997      -81.6956177    
  0.322499990      -82.9288712    
  0.323000014      -84.1286316    
  0.323500007      -85.2937241    
  0.324000001      -86.4217453    
  0.324499995      -87.5112762    
  0.324999988      -88.5605240    
  0.325500011      -89.5677185    
  0.326000005      -90.5314713    
  0.326499999      -91.4505615    
  0.326999992      -92.3225632    
  0.327499986      -93.1458817    
  0.328000009      -93.9195175    
  0.328500003      -94.6408234    
  0.328999996      -95.3091049    
  0.329499990      -95.9225464    
  0.330000013      -96.4796448    
  0.330500007      -96.9784927    
  0.331000000      -97.4180756    
  0.331499994      -97.7968369    
  0.331999987      -98.1134338    
  0.332500011      -98.3668823    
  0.333000004      -98.5552902    
  0.333499998      -98.6777802    
  0.333999991      -98.7332535    
  0.334500015      -98.7200241    
  0.335000008      -98.6372604    
  0.335500002      -98.4838104    
  0.335999995      -98.2586060    
  0.336499989      -97.9605179    
  0.337000012      -97.5889893    
  0.337500006      -97.1428146    
  0.338000000      -96.6209641    
  0.338499993      -96.0229034    
  0.338999987      -95.3483505    
  0.339500010      -94.5960693    
  0.340000004      -93.7654343    
  0.340499997      -92.8561325    
  0.340999991      -91.8677139    
  0.341500014      -90.7996750    
  0.342000008      -89.6519928    
  0.342500001      -88.4243011    
  0.342999995      -87.1166229    
  0.343499988      -85.7286377    
  0.344000012      -84.2608490    
  0.344500005      -82.7128677    
  0.344999999      -81.0852509    
  0.345499992      -79.3783188    
  0.345999986      -77.5924149    
  0.346500009      -75.7278366    
  0.347000003      -73.7854156    
  0.347499996      -71.7655563    
  0.347999990      -69.6690445    
  0.348500013      -67.4966660    
  0.349000007      -65.2492065    
  0.349500000      -62.9276733    
  0.349999994      -60.5333290    
  0.350499988      -58.0667953    
  0.351000011      -55.5300980    
  0.351500005      -52.9237633    
  0.351999998      -50.2496834    
  0.352499992      -47.5092392    
  0.352999985      -44.7038956    
  0.353500009      -41.8355789    
  0.354000002      -38.9058838    
  0.354499996      -35.9166222    
  0.354999989      -32.8696671    
  0.355500013      -29.7673779    
  0.356000006      -26.6114635    
  0.356500000      -23.4039726    
  0.356999993      -20.1478043    
  0.357499987      -16.8451405    
  0.358000010      -13.4983177    
  0.358500004      -10.1090689    
  0.358999997      -6.68065357    
  0.359499991      -3.21551085    
  0.360000014      0.283961713    
  0.360500008       3.81441450    
  0.361000001       7.37321615    
  0.361499995       10.9580746    
  0.361999989       14.5660229    
  0.362500012       18.1939945    
  0.363000005       21.8384590    
  0.363499999       25.4975891    
  0.363999993       29.1673508    
  0.364499986       32.8456802    
  0.365000010       36.5282478    
  0.365500003       40.2122536    
  0.365999997       43.8950386    
  0.366499990       47.5727463    
  0.367000014       51.2418060    
  0.367500007       54.8996010    
  0.368000001       58.5428238    
  0.368499994       62.1666527    
  0.368999988       65.7706299    
  0.369500011       69.3489685    
  0.370000005       72.8984528    
  0.370499998       76.4159317    
  0.370999992       79.8985138    
  0.371499985       83.3420563    
  0.372000009       86.7448044    
  0.372500002       90.1022644    
  0.372999996       93.4113312    
  0.373499990       96.6689224    
  0.374000013       99.8712082    
  0.374500006       103.016853    
  0.375000000       106.101959    
  0.375499994       109.122078    
  0.375999987       112.077087    
  0.376500010       114.962074    
  0.377000004       117.775383    
  0.377499998       120.512184    
  0.377999991       123.172523    
  0.378500015       125.751015    
  0.379000008       128.246521    
  0.379500002       130.656403    
  0.379999995       132.977600    
  0.380499989       135.207855    
  0.381000012       137.345078    
  0.381500006       139.386322    
  0.381999999       141.330078    
  0.382499993       143.174240    
  0.382999986       144.917358    
  0.383500010       146.556290    
  0.384000003       148.090027    
  0.384499997       149.518280    
  0.384999990       150.836670    
  0.385500014       152.045822    
  0.386000007       153.145218    
  0.386500001       154.132126    
  0.386999995       155.006088    
  0.387499988       155.766037    
  0.388000011       156.410782    
  0.388500005       156.940887    
  0.388999999       157.354156    
  0.389499992       157.651627    
  0.389999986       157.831955    
  0.390500009       157.894241    
  0.391000003       157.839783    
  0.391499996       157.668182    
  0.391999990       157.378891    
  0.392500013       156.973251    
  0.393000007       156.450699    
  0.393500000       155.811600    
  0.393999994       155.059052    
  0.394499987       154.190811    
  0.395000011       153.208817    
  0.395500004       152.115433    
  0.395999998       150.911804    
  0.396499991       149.596527    
  0.397000015       148.173706    
  0.397500008       146.644974    
  0.398000002       145.011032    
  0.398499995       143.273605    
  0.398999989       141.435944    
  0.399500012       139.498779    
  0.400000006       137.464111    
  0.400500000       135.334946    
  0.400999993       133.112961    
  0.401499987       130.801498    
  0.402000010       128.402161    
  0.402500004       125.917641    
  0.402999997       123.349770    
  0.403499991       120.702309    
  0.404000014       117.977753    
  0.404500008       115.179199    
  0.405000001       112.309906    
  0.405499995       109.372940    
  0.405999988       106.371552    
  0.406500012       103.308365    
  0.407000005       100.185501    
  0.407499999       97.0084457    
  0.407999992       93.7807465    
  0.408499986       90.5043640    
  0.409000009       87.1836014    
  0.409500003       83.8215790    
  0.409999996       80.4221039    
  0.410499990       76.9880753    
  0.411000013       73.5232849    
  0.411500007       70.0327454    
  0.412000000       66.5191956    
  0.412499994       62.9844971    
  0.412999988       59.4344215    
  0.413500011       55.8715935    
  0.414000005       52.2997818    
  0.414499998       48.7224922    
  0.414999992       45.1428986    
  0.415499985       41.5649757    
  0.416000009       37.9923286    
  0.416500002       34.4279747    
  0.416999996       30.8750248    
  0.417499989       27.3379612    
  0.418000013       23.8195419    
  0.418500006       20.3231163    
  0.419000000       16.8513412    
  0.419499993       13.4085598    
  0.419999987       9.99745464    
  0.420500010       6.62072802    
  0.421000004       3.28191233    
  0.421499997      -1.59443673E-02
  0.421999991      -3.26979065    
  0.422500014      -6.47738314    
  0.423000008      -9.63548756    
  0.423500001      -12.7418146    
  0.423999995      -15.7933369    
  0.424499989      -18.7879295    
  0.425000012      -21.7232246    
  0.425500005      -24.5969582    
  0.425999999      -27.4070187    
  0.426499993      -30.1511326    
  0.426999986      -32.8276634    
  0.427500010      -35.4347801    
  0.428000003      -37.9703522    