   0.00000000      -3.31164585E-09
   5.00000024E-04  -9.56540003E-09
   1.00000005E-03  -1.45127315E-08
   1.50000001E-03  -1.71141981E-08
   2.00000009E-03  -1.65798451E-08
   2.49999994E-03  -1.24732935E-08
   3.00000003E-03  -4.78353934E-09
   3.50000011E-03   6.04318506E-09
   4.00000019E-03   1.91158023E-08
   4.49999981E-03   3.31555619E-08
   4.99999989E-03   4.65945895E-08
   5.49999997E-03   5.77088315E-08
   6.00000005E-03   6.47750582E-08
   6.50000013E-03   6.62392665E-08
   7.00000022E-03   6.08822930E-08
   7.49999983E-03   4.79681468E-08
   8.00000038E-03   2.73613185E-08
   8.50000046E-03  -3.98648697E-10
   8.99999961E-03  -3.40741302E-08
   9.49999969E-03  -7.17629334E-08
   9.99999978E-03  -1.10989141E-07
   1.04999999E-02  -1.48847306E-07
   1.09999999E-02  -1.82192124E-07
   1.15000000E-02  -2.07861007E-07
   1.20000001E-02  -2.22914764E-07
   1.25000002E-02  -2.24878576E-07
   1.30000003E-02  -2.11965414E-07
   1.35000004E-02  -1.83263737E-07
   1.40000004E-02  -1.38873759E-07
   1.44999996E-02  -7.99794861E-08
   1.49999997E-02  -8.84739038E-09
   1.54999997E-02   7.12517121E-08
   1.60000008E-02   1.56196094E-07
   1.64999999E-02   2.41234858E-07
   1.70000009E-02   3.21265617E-07
   1.75000001E-02   3.91151275E-07
   1.79999992E-02   4.46056163E-07
   1.85000002E-02   4.81778557E-07
   1.89999994E-02   4.95057009E-07
   1.95000004E-02   4.83828671E-07
   1.99999996E-02   4.47419183E-07
   2.05000006E-02   3.86650242E-07
   2.09999997E-02   3.03852801E-07
   2.15000007E-02   2.02782388E-07
   2.19999999E-02   8.84390943E-08
   2.25000009E-02  -3.31999708E-08
   2.30000000E-02  -1.55520183E-07
   2.34999992E-02  -2.71661008E-07
   2.40000002E-02  -3.74935411E-07
   2.44999994E-02  -4.59250742E-07
   2.50000004E-02  -5.19502692E-07
   2.54999995E-02  -5.51916855E-07
   2.60000005E-02  -5.54313715E-07
   2.64999997E-02  -5.26277802E-07
   2.70000007E-02  -4.69218776E-07
   2.74999999E-02  -3.86316202E-07
   2.80000009E-02  -2.82351266E-07
   2.85000000E-02  -1.63432375E-07
   2.89999992E-02  -3.66307802E-08
   2.95000002E-02   9.04513442E-08
   2.99999993E-02   2.10154369E-07
   3.05000003E-02   3.15246410E-07
   3.09999995E-02   3.99388426E-07
   3.15000005E-02   4.57549419E-07
   3.20000015E-02   4.86343822E-07
   3.24999988E-02   4.84268810E-07
   3.29999998E-02   4.51823723E-07
   3.35000008E-02   3.91503391E-07
   3.40000018E-02   3.07662873E-07
   3.44999991E-02   2.06261788E-07
   3.50000001E-02   9.45025462E-08
   3.55000012E-02  -1.96158343E-08
   3.59999985E-02  -1.27799808E-07
   3.64999995E-02  -2.21988543E-07
   3.70000005E-02  -2.94872279E-07
   3.75000015E-02  -3.40369013E-07
   3.79999988E-02  -3.54027748E-07
   3.84999998E-02  -3.33332366E-07
   3.90000008E-02  -2.77885817E-07
   3.95000018E-02  -1.89461176E-07
   3.99999991E-02  -7.19160980E-08
   4.05000001E-02   6.90263775E-08
   4.10000011E-02   2.26116867E-07
   4.14999984E-02   3.91018261E-07
   4.19999994E-02   5.54817575E-07
   4.25000004E-02   7.08578455E-07
   4.30000015E-02   8.43899954E-07
   4.34999987E-02   9.53446886E-07
   4.39999998E-02   1.03141826E-06
   4.45000008E-02   1.07392373E-06
   4.50000018E-02   1.07924495E-06
   4.54999991E-02   1.04796516E-06
   4.60000001E-02   9.82956294E-07
   4.65000011E-02   8.89228204E-07
   4.69999984E-02   7.73646263E-07
   4.74999994E-02   6.44533714E-07
   4.80000004E-02   5.11187864E-07
   4.85000014E-02   3.83334708E-07
   4.89999987E-02   2.70558189E-07
   4.94999997E-02   1.81739765E-07
   5.00000007E-02   1.24540392E-07
   5.05000018E-02   1.04959632E-07
   5.09999990E-02   1.26993797E-07
   5.15000001E-02   1.92416394E-07
   5.20000011E-02   3.00694495E-07
   5.24999984E-02   4.49041352E-07
   5.29999994E-02   6.32604213E-07
   5.35000004E-02   8.44772273E-07
   5.40000014E-02   1.07758581E-06
   5.44999987E-02   1.32222169E-06
   5.49999997E-02   1.56952376E-06
   5.55000007E-02   1.81054452E-06
   5.60000017E-02   2.03706963E-06
   5.64999990E-02   2.24209202E-06
   5.70000000E-02   2.42020428E-06
   5.75000010E-02   2.56789554E-06
   5.79999983E-02   2.68373037E-06
   5.84999993E-02   2.76840774E-06
   5.90000004E-02   2.82469136E-06
   5.95000014E-02   2.85722490E-06
   5.99999987E-02   2.87225544E-06
   6.04999997E-02   2.87726107E-06
   6.10000007E-02   2.88052593E-06
   6.15000017E-02   2.89068566E-06
   6.19999990E-02   2.91626725E-06
   6.25000000E-02   2.96525855E-06
   6.30000010E-02   3.04472997E-06
   6.35000020E-02   3.16051455E-06
   6.40000030E-02   3.31698584E-06
   6.44999966E-02   3.51693188E-06
   6.49999976E-02   3.76151729E-06
   6.54999986E-02   4.05035689E-06
   6.59999996E-02   4.38166944E-06
   6.65000007E-02   4.75250863E-06
   6.70000017E-02   5.15904776E-06
   6.75000027E-02   5.59689943E-06
   6.80000037E-02   6.06145431E-06
   6.84999973E-02   6.54820769E-06
   6.89999983E-02   7.05306320E-06
   6.94999993E-02   7.57259431E-06
   7.00000003E-02   8.10424717E-06
   7.05000013E-02   8.64647518E-06
   7.10000023E-02   9.19880495E-06
   7.15000033E-02   9.76184947E-06
   7.19999969E-02   1.03372358E-05
   7.24999979E-02   1.09274979E-05
   7.29999989E-02   1.15359308E-05
   7.34999999E-02   1.21664179E-05
   7.40000010E-02   1.28232241E-05
   7.45000020E-02   1.35108057E-05
   7.50000030E-02   1.42336630E-05
   7.54999965E-02   1.49961961E-05
   7.59999976E-02   1.58025941E-05
   7.64999986E-02   1.66567552E-05
   7.69999996E-02   1.75622699E-05
   7.75000006E-02   1.85224453E-05
   7.80000016E-02   1.95403300E-05
   7.85000026E-02   2.06187815E-05
   7.90000036E-02   2.17605830E-05
   7.94999972E-02   2.29685156E-05
   7.99999982E-02   2.42454407E-05
   8.04999992E-02   2.55943996E-05
   8.10000002E-02   2.70186629E-05
   8.15000013E-02   2.85217611E-05
   8.20000023E-02   3.01075434E-05
   8.25000033E-02   3.17801205E-05
   8.29999968E-02   3.35438344E-05
   8.34999979E-02   3.54032563E-05
   8.39999989E-02   3.73631046E-05
   8.44999999E-02   3.94281851E-05
   8.50000009E-02   4.16033472E-05
   8.55000019E-02   4.38934585E-05
   8.60000029E-02   4.63033466E-05
   8.64999965E-02   4.88378573E-05
   8.69999975E-02   5.15018837E-05
   8.74999985E-02   5.43003880E-05
   8.79999995E-02   5.72385361E-05
   8.85000005E-02   6.03217595E-05
   8.90000015E-02   6.35558754E-05
   8.95000026E-02   6.69471847E-05
   9.00000036E-02   7.05026396E-05
   9.04999971E-02   7.42298434E-05
   9.09999982E-02   7.81371928E-05
   9.14999992E-02   8.22338625E-05
   9.20000002E-02   8.65297770E-05
   9.25000012E-02   9.10356903E-05
   9.30000022E-02   9.57630182E-05
   9.35000032E-02   1.00723766E-04
   9.39999968E-02   1.05930463E-04
   9.44999978E-02   1.11396010E-04
   9.49999988E-02   1.17133510E-04
   9.54999998E-02   1.23156206E-04
   9.60000008E-02   1.29477456E-04
   9.65000018E-02   1.36110597E-04
   9.70000029E-02   1.43068930E-04
   9.74999964E-02   1.50365697E-04
   9.79999974E-02   1.58014271E-04
   9.84999985E-02   1.66028301E-04
   9.89999995E-02   1.74421759E-04
   9.95000005E-02   1.83209093E-04
  0.100000001       1.92405671E-04
  0.100500003       2.02027761E-04
  0.101000004       2.12092738E-04
  0.101499997       2.22619565E-04
  0.101999998       2.33628642E-04
  0.102499999       2.45142000E-04
  0.103000000       2.57183332E-04
  0.103500001       2.69777782E-04
  0.104000002       2.82952271E-04
  0.104500003       2.96735088E-04
  0.104999997       3.11155483E-04
  0.105499998       3.26243782E-04
  0.105999999       3.42031213E-04
  0.106500000       3.58549325E-04
  0.107000001       3.75829957E-04
  0.107500002       3.93905153E-04
  0.108000003       4.12806869E-04
  0.108499996       4.32567060E-04
  0.108999997       4.53217741E-04
  0.109499998       4.74791013E-04
  0.109999999       4.97319386E-04
  0.110500000       5.20835805E-04
  0.111000001       5.45374118E-04
  0.111500002       5.70969714E-04
  0.112000003       5.97660255E-04
  0.112499997       6.25484914E-04
  0.112999998       6.54485659E-04
  0.113499999       6.84707600E-04
  0.114000000       7.16199051E-04
  0.114500001       7.49011640E-04
  0.115000002       7.83200841E-04
  0.115500003       8.18825676E-04
  0.115999997       8.55948485E-04
  0.116499998       8.94634461E-04
  0.116999999       9.34951706E-04
  0.117500000       9.76971001E-04
  0.118000001       1.02076505E-03
  0.118500002       1.06640789E-03
  0.119000003       1.11397461E-03
  0.119499996       1.16354134E-03
  0.119999997       1.21518457E-03
  0.120499998       1.26898091E-03
  0.120999999       1.32500741E-03
  0.121500000       1.38334173E-03
  0.122000001       1.44406082E-03
  0.122500002       1.50724314E-03
  0.123000003       1.57296844E-03
  0.123499997       1.64131809E-03
  0.123999998       1.71237532E-03
  0.124499999       1.78622722E-03
  0.125000000       1.86296471E-03
  0.125499994       1.94268255E-03
  0.126000002       2.02548131E-03
  0.126499996       2.11146683E-03
  0.127000004       2.20075040E-03
  0.127499998       2.29344959E-03
  0.128000006       2.38968804E-03
  0.128500000       2.48959381E-03
  0.128999993       2.59330240E-03
  0.129500002       2.70095631E-03
  0.129999995       2.81270058E-03
  0.130500004       2.92868377E-03
  0.130999997       3.04905768E-03
  0.131500006       3.17397714E-03
  0.131999999       3.30360141E-03
  0.132499993       3.43809137E-03
  0.133000001       3.57760815E-03
  0.133499995       3.72231286E-03
  0.134000003       3.87236895E-03
  0.134499997       4.02794266E-03
  0.135000005       4.18919977E-03
  0.135499999       4.35630977E-03
  0.136000007       4.52944450E-03
  0.136500001       4.70877904E-03
  0.136999995       4.89449361E-03
  0.137500003       5.08677214E-03
  0.137999997       5.28580742E-03
  0.138500005       5.49179548E-03
  0.138999999       5.70493937E-03
  0.139500007       5.92545373E-03
  0.140000001       6.15356024E-03
  0.140499994       6.38948847E-03
  0.141000003       6.63347542E-03
  0.141499996       6.88576605E-03
  0.142000005       7.14660995E-03
  0.142499998       7.41627067E-03
  0.143000007       7.69501366E-03
  0.143500000       7.98310991E-03
  0.143999994       8.28083698E-03
  0.144500002       8.58847797E-03
  0.144999996       8.90632160E-03
  0.145500004       9.23465379E-03
  0.145999998       9.57376789E-03
  0.146500006       9.92395822E-03
  0.147000000       1.02855237E-02
  0.147499993       1.06587606E-02
  0.148000002       1.10439751E-02
  0.148499995       1.14414729E-02
  0.149000004       1.18515603E-02
  0.149499997       1.22745521E-02
  0.150000006       1.27107669E-02
  0.150500000       1.31605314E-02
  0.150999993       1.36241736E-02
  0.151500002       1.41020296E-02
  0.151999995       1.45944431E-02
  0.152500004       1.51017625E-02
  0.152999997       1.56243453E-02
  0.153500006       1.61625613E-02
  0.153999999       1.67167857E-02
  0.154499993       1.72874015E-02
  0.155000001       1.78747941E-02
  0.155499995       1.84793603E-02
  0.156000003       1.91015061E-02
  0.156499997       1.97416339E-02
  0.157000005       2.04001535E-02
  0.157499999       2.10774802E-02
  0.158000007       2.17740368E-02
  0.158500001       2.24902462E-02
  0.158999994       2.32265312E-02
  0.159500003       2.39833239E-02
  0.159999996       2.47610416E-02
  0.160500005       2.55601183E-02
  0.160999998       2.63809785E-02
  0.161500007       2.72240527E-02
  0.162000000       2.80897673E-02
  0.162499994       2.89785508E-02
  0.163000003       2.98908353E-02
  0.163499996       3.08270529E-02
  0.164000005       3.17876227E-02
  0.164499998       3.27729769E-02
  0.165000007       3.37835588E-02
  0.165500000       3.48198004E-02
  0.165999994       3.58821377E-02
  0.166500002       3.69709991E-02
  0.166999996       3.80868241E-02
  0.167500004       3.92300598E-02
  0.167999998       4.04011421E-02
  0.168500006       4.16004956E-02
  0.169000000       4.28285636E-02
  0.169499993       4.40858006E-02
  0.170000002       4.53726128E-02
  0.170499995       4.66894284E-02
  0.171000004       4.80366684E-02
  0.171499997       4.94147465E-02
  0.172000006       5.08240461E-02
  0.172499999       5.22649698E-02
  0.172999993       5.37379123E-02
  0.173500001       5.52432425E-02
  0.173999995       5.67813218E-02
  0.174500003       5.83525188E-02
  0.174999997       5.99571727E-02
  0.175500005       6.15955964E-02
  0.175999999       6.32680953E-02
  0.176499993       6.49749786E-02
  0.177000001       6.67165443E-02
  0.177499995       6.84930310E-02
  0.178000003       7.03047290E-02
  0.178499997       7.21518546E-02
  0.179000005       7.40346462E-02
  0.179499999       7.59533122E-02
  0.180000007       7.79080316E-02
  0.180500001       7.98990056E-02
  0.180999994       8.19263831E-02
  0.181500003       8.39903057E-02
  0.181999996       8.60908702E-02
  0.182500005       8.82281736E-02
  0.182999998       9.04022828E-02
  0.183500007       9.26132500E-02
  0.184000000       9.48610529E-02
  0.184499994       9.71456841E-02
  0.185000002       9.94670689E-02
  0.185499996      0.101825148    
  0.186000004      0.104219787    
  0.186499998      0.106650837    
  0.187000006      0.109118126    
  0.187500000      0.111621425    
  0.187999994      0.114160448    
  0.188500002      0.116734900    
  0.188999996      0.119344443    
  0.189500004      0.121988654    
  0.189999998      0.124667130    
  0.190500006      0.127379403    
  0.191000000      0.130124912    
  0.191499993      0.132903084    
  0.192000002      0.135713324    
  0.192499995      0.138554975    
  0.193000004      0.141427353    
  0.193499997      0.144329682    
  0.194000006      0.147261187    
  0.194499999      0.150221065    
  0.194999993      0.153208479    
  0.195500001      0.156222403    
  0.195999995      0.159261867    
  0.196500003      0.162325814    
  0.196999997      0.165413156    
  0.197500005      0.168522745    
  0.197999999      0.171653315    
  0.198500007      0.174803555    
  0.199000001      0.177972153    
  0.199499995      0.181157634    
  0.200000003      0.184358507    
  0.200499997      0.187573209    
  0.201000005      0.190800026    
  0.201499999      0.194037259    
  0.202000007      0.197283089    
  0.202500001      0.200535625    
  0.202999994      0.203792989    
  0.203500003      0.207053035    
  0.203999996      0.210313633    
  0.204500005      0.213572592    
  0.204999998      0.216827601    
  0.205500007      0.220076367    
  0.206000000      0.223316461    
  0.206499994      0.226545393    
  0.207000002      0.229760677    
  0.207499996      0.232959762    
  0.208000004      0.236140013    
  0.208499998      0.239298791    
  0.209000006      0.242433235    
  0.209500000      0.245540559    
  0.209999993      0.248617813    
  0.210500002      0.251661986    
  0.210999995      0.254670084    
  0.211500004      0.257638901    
  0.211999997      0.260565132    
  0.212500006      0.263445556    
  0.213000000      0.266276717    
  0.213499993      0.269055158    
  0.214000002      0.271777242    
  0.214499995      0.274439186    
  0.215000004      0.277037263    
  0.215499997      0.279567599    
  0.216000006      0.282026201    
  0.216499999      0.284409016    
  0.216999993      0.286711961    
  0.217500001      0.288930893    
  0.217999995      0.291061461    
  0.218500003      0.293099284    
  0.218999997      0.295040071    
  0.219500005      0.296879530    
  0.219999999      0.298613280    
  0.220500007      0.300236911    
  0.221000001      0.301745892    
  0.221499994      0.303135842    
  0.222000003      0.304402232    
  0.222499996      0.305540770    
  0.223000005      0.306546777    
  0.223499998      0.307415605    
  0.224000007      0.308142573    
  0.224500000      0.308722913    
  0.224999994      0.309151828    
  0.225500003      0.309424341    
  0.225999996      0.309535712    
  0.226500005      0.309481084    
  0.226999998      0.309255481    
  0.227500007      0.308853805    
  0.228000000      0.308271110    
  0.228499994      0.307502538    
  0.229000002      0.306543082    
  0.229499996      0.305387735    
  0.230000004      0.304031640    
  0.230499998      0.302469850    
  0.231000006      0.300697535    
  0.231500000      0.298709989    
  0.231999993      0.296502411    
  0.232500002      0.294070065    
  0.232999995      0.291408300    
  0.233500004      0.288512409    
  0.233999997      0.285377949    
  0.234500006      0.282000303    
  0.234999999      0.278375179    
  0.235499993      0.274498314    
  0.236000001      0.270365298    
  0.236499995      0.265972108    
  0.237000003      0.261314541    
  0.237499997      0.256388664    
  0.238000005      0.251190633    
  0.238499999      0.245716706    
  0.238999993      0.239963278    
  0.239500001      0.233926818    
  0.239999995      0.227604017    
  0.240500003      0.220991760    
  0.240999997      0.214087009    
  0.241500005      0.206886634    
  0.241999999      0.199387833    
  0.242500007      0.191588134    
  0.243000001      0.183485031    
  0.243499994      0.175076216    
  0.244000003      0.166359499    
  0.244499996      0.157333031    
  0.245000005      0.147995248    
  0.245499998      0.138344735    
  0.246000007      0.128380165    
  0.246500000      0.118100345    
  0.246999994      0.107504673    
  0.247500002       9.65925306E-02
  0.247999996       8.53634328E-02
  0.248500004       7.38174617E-02
  0.248999998       6.19547032E-02
  0.249500006       4.97754589E-02
  0.250000000       3.72805111E-02
  0.250499994       2.44709961E-02
  0.250999987       1.13480696E-02
  0.251500010      -2.08659843E-03
  0.252000004      -1.58308074E-02
  0.252499998      -2.98823863E-02
  0.252999991      -4.42387573E-02
  0.253500015      -5.88967726E-02
  0.254000008      -7.38530383E-02
  0.254500002      -8.91039446E-02
  0.254999995     -0.104645625    
  0.255499989     -0.120473951    
  0.256000012     -0.136584148    
  0.256500006     -0.152971283    
  0.256999999     -0.169630408    
  0.257499993     -0.186556131    
  0.257999986     -0.203742623    
  0.258500010     -0.221183911    
  0.259000003     -0.238873541    
  0.259499997     -0.256804705    
  0.259999990     -0.274970531    
  0.260500014     -0.293363720    
  0.261000007     -0.311976522    
  0.261500001     -0.330800861    
  0.261999995     -0.349828482    
  0.262499988     -0.369050682    
  0.263000011     -0.388458133    
  0.263500005     -0.408041269    
  0.263999999     -0.427789986    
  0.264499992     -0.447693914    
  0.264999986     -0.467742264    
  0.265500009     -0.487923831    
  0.266000003     -0.508226931    
  0.266499996     -0.528639734    
  0.266999990     -0.549149752    
  0.267500013     -0.569744289    
  0.268000007     -0.590410471    
  0.268500000     -0.611134946    
  0.268999994     -0.631903768    
  0.269499987     -0.652703345    
  0.270000011     -0.673519671    
  0.270500004     -0.694338322    
  0.270999998     -0.715144813    
  0.271499991     -0.735924542    
  0.272000015     -0.756662607    
  0.272500008     -0.777343988    
  0.273000002     -0.797953367    
  0.273499995     -0.818475425    
  0.273999989     -0.838894427    
  0.274500012     -0.859194696    
  0.275000006     -0.879360139    
  0.275500000     -0.899374604    
  0.275999993     -0.919221580    
  0.276499987     -0.938884318    
  0.277000010     -0.958345950    
  0.277500004     -0.977589369    
  0.277999997     -0.996597171    
  0.278499991      -1.01535177    
  0.279000014      -1.03383553    
  0.279500008      -1.05203056    
  0.280000001      -1.06991875    
  0.280499995      -1.08748209    
  0.280999988      -1.10470259    
  0.281500012      -1.12156212    
  0.282000005      -1.13804269    
  0.282499999      -1.15412629    
  0.282999992      -1.16979516    
  0.283499986      -1.18503165    
  0.284000009      -1.19981837    
  0.284500003      -1.21413779    
  0.284999996      -1.22797287    
  0.285499990      -1.24130654    
  0.286000013      -1.25412214    
  0.286500007      -1.26640308    
  0.287000000      -1.27813315    
  0.287499994      -1.28929603    
  0.287999988      -1.29987621    
  0.288500011      -1.30985773    
  0.289000005      -1.31922519    
  0.289499998      -1.32796347    
  0.289999992      -1.33605742    
  0.290499985      -1.34349203    
  0.291000009      -1.35025263    
  0.291500002      -1.35632503    
  0.291999996      -1.36169529    
  0.292499989      -1.36634946    
  0.293000013      -1.37027454    
  0.293500006      -1.37345791    
  0.294000000      -1.37588716    
  0.294499993      -1.37755036    
  0.294999987      -1.37843645    
  0.295500010      -1.37853456    
  0.296000004      -1.37783456    
  0.296499997      -1.37632692    
  0.296999991      -1.37400281    
  0.297500014      -1.37085426    
  0.298000008      -1.36687350    
  0.298500001      -1.36205375    
  0.298999995      -1.35638881    
  0.299499989      -1.34987295    
  0.300000012      -1.34250128    
  0.300500005      -1.33426964    
  0.300999999      -1.32517457    
  0.301499993      -1.31521249    
  0.301999986      -1.30438101    
  0.302500010      -1.29267871    
  0.303000003      -1.28010440    
  0.303499997      -1.26665795    
  0.303999990      -1.25233996    
  0.304500014      -1.23715091    
  0.305000007      -1.22109258    
  0.305500001      -1.20416713    
  0.305999994      -1.18637764    
  0.306499988      -1.16772795    
  0.307000011      -1.14822328    
  0.307500005      -1.12786913    
  0.307999998      -1.10667229    
  0.308499992      -1.08463943    
  0.308999985      -1.06177855    
  0.309500009      -1.03809881    
  0.310000002      -1.01360989    
  0.310499996     -0.988322616    
  0.310999990     -0.962248862    
  0.311500013     -0.935400546    
  0.312000006     -0.907790542    
  0.312500000     -0.879432201    
  0.312999994     -0.850339711    
  0.313499987     -0.820528388    
  0.314000010     -0.790014029    
  0.314500004     -0.758813024    
  0.314999998     -0.726942062    
  0.315499991     -0.694418907    
  0.316000015     -0.661261678    
  0.316500008     -0.627489150    
  0.317000002     -0.593121171    
  0.317499995     -0.558177650    
  0.317999989     -0.522679508    
  0.318500012     -0.486648887    
  0.319000006     -0.450108021    
  0.319499999     -0.413079143    
  0.319999993     -0.375585884    
  0.320499986     -0.337652922    
  0.321000010     -0.299305141    
  0.321500003     -0.260567904    
  0.321999997     -0.221467108    
  0.322499990     -0.182029486    
  0.323000014     -0.142282352    
  0.323500007     -0.102253534    
  0.324000001      -6.19714223E-02
  0.324499995      -2.14641634E-02
  0.324999988       1.92393288E-02
  0.325500011       6.01104051E-02
  0.326000005      0.101120353    
  0.326499999      0.142239198    
  0.326999992      0.183437660    
  0.327499986      0.224686503    
  0.328000009      0.265956521    
  0.328500003      0.307218373    
  0.328999996      0.348442137    
  0.329499990      0.389598072    
  0.330000013      0.430657089    
  0.330500007      0.471589267    
  0.331000000      0.512364507    
  0.331499994      0.552953184    
  0.331999987      0.593325675    
  0.332500011      0.633452237    
  0.333000004      0.673302770    
  0.333499998      0.712847173    
  0.333999991      0.752055407    
  0.334500015      0.790897191    
  0.335000008      0.829342544    
  0.335500002      0.867361665    
  0.335999995      0.904925108    
  0.336499989      0.942003608    
  0.337000012      0.978567719    
  0.337500006       1.01458907    
  0.338000000       1.05004001    
  0.338499993       1.08489323    
  0.338999987       1.11912191    
  0.339500010       1.15269947    
  0.340000004       1.18560028    
  0.340499997       1.21779978    
  0.340999991       1.24927402    
  0.341500014       1.27999949    
  0.342000008       1.30995369    
  0.342500001       1.33911455    
  0.342999995       1.36746073    
  0.343499988       1.39497185    
  0.344000012       1.42162788    
  0.344500005       1.44740975    
  0.344999999       1.47229898    
  0.345499992       1.49627686    
  0.345999986       1.51932609    
  0.346500009       1.54142988    
  0.347000003       1.56257224    
  0.347499996       1.58273780    
  0.347999990       1.60191095    
  0.348500013       1.62007785    
  0.349000007       1.63722551    
  0.349500000       1.65334117    
  0.349999994       1.66841388    
  0.350499988       1.68243265    
  0.351000011       1.69538808    
  0.351500005       1.70727181    
  0.351999998       1.71807659    
  0.352499992       1.72779572    
  0.352999985       1.73642373    
  0.353500009       1.74395645    
  0.354000002       1.75039101    
  0.354499996       1.75572538    
  0.354999989       1.75995886    
  0.355500013       1.76309156    
  0.356000006       1.76512408    
  0.356500000       1.76605856    
  0.356999993       1.76589775    
  0.357499987       1.76464593    
  0.358000010       1.76230752    
  0.358500004       1.75888813    
  0.358999997       1.75439382    
  0.359499991       1.74883187    
  0.360000014       1.74221003    
  0.360500008       1.73453701    
  0.361000001       1.72582245    
  0.361499995       1.71607661    
  0.361999989       1.70531058    
  0.362500012       1.69353628    
  0.363000005       1.68076646    
  0.363499999       1.66701496    
  0.363999993       1.65229583    
  0.364499986       1.63662434    
  0.365000010       1.62001657    
  0.365500003       1.60248911    
  0.365999997       1.58405936    
  0.366499990       1.56474566    
  0.367000014       1.54456687    
  0.367500007       1.52354288    
  0.368000001       1.50169373    
  0.368499994       1.47904050    
  0.368999988       1.45560467    
  0.369500011       1.43140829    
  0.370000005       1.40647388    
  0.370499998       1.38082504    
  0.370999992       1.35448551    
  0.371499985       1.32747948    
  0.372000009       1.29983151    
  0.372500002       1.27156639    
  0.372999996       1.24270940    
  0.373499990       1.21328628    
  0.374000013       1.18332338    
  0.374500006       1.15284717    
  0.375000000       1.12188411    
  0.375499994       1.09046102    
  0.375999987       1.05860484    
  0.376500010       1.02634299    
  0.377000004      0.993702710    
  0.377499998      0.960711360    
  0.377999991      0.927396536    
  0.378500015      0.893785298    
  0.379000008      0.859905183    
  0.379500002      0.825783372    
  0.379999995      0.791446984    
  0.380499989      0.756923079    
  0.381000012      0.722239017    
  0.381500006      0.687421381    
  0.381999999      0.652496696    
  0.382499993      0.617491186    
  0.382999986      0.582430899    
  0.383500010      0.547341824    
  0.384000003      0.512250185    
  0.384499997      0.477182269    
  0.384999990      0.442163765    
  0.385500014      0.407220364    
  0.386000007      0.372377694    
  0.386500001      0.337660968    
  0.386999995      0.303095192    
  0.387499988      0.268705517    
  0.388000011      0.234516472    
  0.388500005      0.200551972    
  0.388999999      0.166835755    
  0.389499992      0.133391306    
  0.389999986      0.100241214    
  0.390500009       6.74072206E-02
  0.391000003       3.49109471E-02
  0.391499996       2.77334661E-03
  0.391999990      -2.89859343E-02
  0.392500013      -6.03476875E-02
  0.393000007      -9.12930295E-02
  0.393500000     -0.121804394    
  0.393999994     -0.151865005    
  0.394499987     -0.181458130    
  0.395000011     -0.210567698    
  0.395500004     -0.239178896    
  0.395999998     -0.267277539    
  0.396499991     -0.294849634    
  0.397000015     -0.321881384    
  0.397500008     -0.348359734    
  0.398000002     -0.374272346    
  0.398499995     -0.399606973    
  0.398999989     -0.424351841    
  0.399500012     -0.448495656    
  0.400000006     -0.472027689    
  0.400500000     -0.494937539    
  0.400999993     -0.517215610    
  0.401499987     -0.538852572    
  0.402000010     -0.559839666    
  0.402500004     -0.580169141    
  0.402999997     -0.599834204    
  0.403499991     -0.618828654    
  0.404000014     -0.637147009    
  0.404500008     -0.654784679    
  0.405000001     -0.671738029    
  0.405499995     -0.688003957    
  0.405999988     -0.703580737    
  0.406500012     -0.718467474    
  0.407000005     -0.732663631    
  0.407499999     -0.746169329    
  0.407999992     -0.758985400    
  0.408499986     -0.771113157    
  0.409000009     -0.782554328    
  0.409500003     -0.793310761    
  0.409999996     -0.803384960    
  0.410499990     -0.812779665    
  0.411000013     -0.821497619    
  0.411500007     -0.829541743    
  0.412000000     -0.836915195    
  0.412499994     -0.843621373    
  0.412999988     -0.849664032    
  0.413500011     -0.855047524    
  0.414000005     -0.859776556    
  0.414499998     -0.863856018    
  0.414999992     -0.867291451    
  0.415499985     -0.870088995    
  0.416000009     -0.872255325    
  0.416500002     -0.873797774    
  0.416999996     -0.874724090    
  0.417499989     -0.875042856    
  0.418000013     -0.874763012    
  0.418500006     -0.873893917    
  0.419000000     -0.872445941    
  0.419499993     -0.870429575    
  0.419999987     -0.867855251    
  0.420500010     -0.864734113    
  0.421000004     -0.861077249    
  0.421499997     -0.856895864    
  0.421999991     -0.852201045    
  0.422500014     -0.847003996    
  0.423000008     -0.841315448    
  0.423500001     -0.835146189    
  0.423999995     -0.828507066    
  0.424499989     -0.821408570    
  0.425000012     -0.813861012    
  0.425500005     -0.805874884    
  0.425999999     -0.797460556    
  0.426499993     -0.788628638    
  0.426999986     -0.779389977    
  0.427500010     -0.769755423    
  0.428000003     -0.759736300    