   0.00000000       0.00000000    
   5.00000024E-04   0.00000000    
   1.00000005E-03   0.00000000    
   1.50000001E-03  -6.20858855E-18
   2.00000009E-03  -5.34550185E-17
   2.49999994E-03  -2.46569809E-16
   3.00000003E-03  -8.12555265E-16
   3.50000011E-03  -2.14326271E-15
   4.00000019E-03  -4.79822226E-15
   4.49999981E-03  -9.43255805E-15
   4.99999989E-03  -1.66183883E-14
   5.49999997E-03  -2.65415809E-14
   6.00000005E-03  -3.85794708E-14
   6.50000013E-03  -5.07975349E-14
   7.00000022E-03  -5.94404151E-14
   7.49999983E-03  -5.85301664E-14
   8.00000038E-03  -3.97149151E-14
   8.50000046E-03   7.47268136E-15
   8.99999961E-03   9.47924668E-14
   9.49999969E-03   2.33786027E-13
   9.99999978E-03   4.33517507E-13
   1.04999999E-02   6.97595898E-13
   1.09999999E-02   1.02062792E-12
   1.15000000E-02   1.38438653E-12
   1.20000001E-02   1.75412039E-12
   1.25000002E-02   2.07555978E-12
   1.30000003E-02   2.27327619E-12
   1.35000004E-02   2.25110100E-12
   1.40000004E-02   1.89528970E-12
   1.44999996E-02   1.08101809E-12
   1.49999997E-02  -3.17404550E-13
   1.54999997E-02  -2.41251051E-12
   1.60000008E-02  -5.28612831E-12
   1.64999999E-02  -8.96906160E-12
   1.70000009E-02  -1.34192345E-11
   1.75000001E-02  -1.85000504E-11
   1.79999992E-02  -2.39611438E-11
   1.85000002E-02  -2.94241055E-11
   1.89999994E-02  -3.43758980E-11
   1.95000004E-02  -3.81727427E-11
   1.99999996E-02  -4.00569578E-11
   2.05000006E-02  -3.91886731E-11
   2.09999997E-02  -3.46935744E-11
   2.15000007E-02  -2.57266656E-11
   2.19999999E-02  -1.15507083E-11
   2.25000009E-02   8.37357527E-12
   2.30000000E-02   3.42900049E-11
   2.34999992E-02   6.60482988E-11
   2.40000002E-02   1.03011759E-10
   2.44999994E-02   1.43979911E-10
   2.50000004E-02   1.87135474E-10
   2.54999995E-02   2.30024805E-10
   2.60000005E-02   2.69580830E-10
   2.64999997E-02   3.02195380E-10
   2.70000007E-02   3.23846172E-10
   2.74999999E-02   3.30280692E-10
   2.80000009E-02   3.17254639E-10
   2.85000000E-02   2.80819895E-10
   2.89999992E-02   2.17650828E-10
   2.95000002E-02   1.25394334E-10
   2.99999993E-02   3.02418789E-12
   3.05000003E-02  -1.48823190E-10
   3.09999995E-02  -3.27557564E-10
   3.15000005E-02  -5.28414756E-10
   3.20000015E-02  -7.44334594E-10
   3.24999988E-02  -9.65961755E-10
   3.29999998E-02  -1.18178922E-09
   3.35000008E-02  -1.37846012E-09
   3.40000018E-02  -1.54123325E-09
   3.44999991E-02  -1.65461000E-09
   3.50000001E-02  -1.70310965E-09
   3.55000012E-02  -1.67216785E-09
   3.59999985E-02  -1.54912139E-09
   3.64999995E-02  -1.32423528E-09
   3.70000005E-02  -9.91714266E-10
   3.75000015E-02  -5.50638146E-10
   3.79999988E-02  -5.75471485E-12
   3.84999998E-02   6.31935948E-10
   3.90000008E-02   1.34486722E-09
   3.95000018E-02   2.10891549E-09
   3.99999991E-02   2.89377544E-09
   4.05000001E-02   3.66372799E-09
   4.10000011E-02   4.37880088E-09
   4.14999984E-02   4.99631136E-09
   4.19999994E-02   5.47274803E-09
   4.25000004E-02   5.76592285E-09
   4.30000015E-02   5.83731552E-09
   4.34999987E-02   5.65449199E-09
   4.39999998E-02   5.19348164E-09
   4.45000008E-02   4.44097426E-09
   4.50000018E-02   3.39619910E-09
   4.54999991E-02   2.07235673E-09
   4.60000001E-02   4.97473562E-10
   4.65000011E-02  -1.28541755E-09
   4.69999984E-02  -3.21884963E-09
   4.74999994E-02  -5.23228616E-09
   4.80000004E-02  -7.24428206E-09
   4.85000014E-02  -9.16539733E-09
   4.89999987E-02  -1.09017844E-08
   4.94999997E-02  -1.23593082E-08
   5.00000007E-02  -1.34480427E-08
   5.05000018E-02  -1.40869370E-08
   5.09999990E-02  -1.42084255E-08
   5.15000001E-02  -1.37627358E-08
   5.20000011E-02  -1.27216548E-08
   5.24999984E-02  -1.10815206E-08
   5.29999994E-02  -8.86522677E-09
   5.35000004E-02  -6.12306517E-09
   5.40000014E-02  -2.93229285E-09
   5.44999987E-02   6.04648220E-10
   5.49999997E-02   4.36325465E-09
   5.55000007E-02   8.20135515E-09
   5.60000017E-02   1.19646302E-08
   5.64999990E-02   1.54930415E-08
   5.70000000E-02   1.86279152E-08
   5.75000010E-02   2.12193410E-08
   5.79999983E-02   2.31335342E-08
   5.84999993E-02   2.42598031E-08
   5.90000004E-02   2.45167300E-08
   5.95000014E-02   2.38572326E-08
   5.99999987E-02   2.22721841E-08
   6.04999997E-02   1.97923473E-08
   6.10000007E-02   1.64884568E-08
   6.15000017E-02   1.24693482E-08
   6.19999990E-02   7.87816745E-09
   6.25000000E-02   2.88675661E-09
   6.30000010E-02  -2.31155428E-09
   6.35000020E-02  -7.51045182E-09
   6.40000030E-02  -1.25000419E-08
   6.44999966E-02  -1.70767240E-08
   6.49999976E-02  -2.10530118E-08
   6.54999986E-02  -2.42668055E-08
   6.59999996E-02  -2.65896443E-08
   6.65000007E-02  -2.79334227E-08
   6.70000017E-02  -2.82552168E-08
   6.75000027E-02  -2.75598993E-08
   6.80000037E-02  -2.59003130E-08
   6.84999973E-02  -2.33749660E-08
   6.89999983E-02  -2.01232631E-08
   6.94999993E-02  -1.63184684E-08
   7.00000003E-02  -1.21587025E-08
   7.05000013E-02  -7.85643461E-09
   7.10000023E-02  -3.62694297E-09
   7.15000033E-02   3.23618826E-10
   7.19999969E-02   3.80991816E-09
   7.24999979E-02   6.67825839E-09
   7.29999989E-02   8.81587514E-09
   7.34999999E-02   1.01581632E-08
   7.40000010E-02   1.06933387E-08
   7.45000020E-02   1.04642055E-08
   7.50000030E-02   9.56680868E-09
   7.54999965E-02   8.14592305E-09
   7.59999976E-02   6.38751541E-09
   7.64999986E-02   4.50846960E-09
   7.69999996E-02   2.74402834E-09
   7.75000006E-02   1.33355238E-09
   7.80000016E-02   5.05318176E-10
   7.85000026E-02   4.61144622E-10
   7.90000036E-02   1.36169409E-09
   7.94999972E-02   3.31329408E-09
   7.99999982E-02   6.35707931E-09
   8.04999992E-02   1.04611644E-08
   8.10000002E-02   1.55164361E-08
   8.15000013E-02   2.13363851E-08
   8.20000023E-02   2.76612031E-08
   8.25000033E-02   3.41661810E-08
   8.29999968E-02   4.04741733E-08
   8.34999979E-02   4.61717349E-08
   8.39999989E-02   5.08282803E-08
   8.44999999E-02   5.40174518E-08
   8.50000009E-02   5.53397470E-08
   8.55000019E-02   5.44453087E-08
   8.60000029E-02   5.10557605E-08
   8.64999965E-02   4.49839490E-08
   8.69999975E-02   3.61505101E-08
   8.74999985E-02   2.45962983E-08
   8.79999995E-02   1.04898055E-08
   8.85000005E-02  -5.87096105E-09
   8.90000015E-02  -2.40625475E-08
   8.95000026E-02  -4.35461800E-08
   9.00000036E-02  -6.36837285E-08
   9.04999971E-02  -8.37590477E-08
   9.09999982E-02  -1.03003920E-07
   9.14999992E-02  -1.20627661E-07
   9.20000002E-02  -1.35849064E-07
   9.25000012E-02  -1.47929413E-07
   9.30000022E-02  -1.56205147E-07
   9.35000032E-02  -1.60118404E-07
   9.39999968E-02  -1.59244323E-07
   9.44999978E-02  -1.53313465E-07
   9.49999988E-02  -1.42228387E-07
   9.54999998E-02  -1.26073147E-07
   9.60000008E-02  -1.05115433E-07
   9.65000018E-02  -7.98005217E-08
   9.70000029E-02  -5.07375297E-08
   9.74999964E-02  -1.86780280E-08
   9.79999974E-02   1.55121676E-08
   9.84999985E-02   5.08869213E-08
   9.89999995E-02   8.64581366E-08
   9.95000005E-02   1.21236909E-07
  0.100000001       1.54275810E-07
  0.100500003       1.84710260E-07
  0.101000004       2.11797399E-07
  0.101499997       2.34950448E-07
  0.101999998       2.53767013E-07
  0.102499999       2.68050002E-07
  0.103000000       2.77820078E-07
  0.103500001       2.83318769E-07
  0.104000002       2.85002130E-07
  0.104500003       2.83525054E-07
  0.104999997       2.79716716E-07
  0.105499998       2.74547915E-07
  0.105999999       2.69092340E-07
  0.106500000       2.64482452E-07
  0.107000001       2.61862709E-07
  0.107500002       2.62341700E-07
  0.108000003       2.66945648E-07
  0.108499996       2.76575065E-07
  0.108999997       2.91966984E-07
  0.109499998       3.13664003E-07
  0.109999999       3.41992120E-07
  0.110500000       3.77048053E-07
  0.111000001       4.18696800E-07
  0.111500002       4.66580047E-07
  0.112000003       5.20134279E-07
  0.112499997       5.78618653E-07
  0.112999998       6.41151303E-07
  0.113499999       7.06751905E-07
  0.114000000       7.74389434E-07
  0.114500001       8.43032637E-07
  0.115000002       9.11700965E-07
  0.115500003       9.79514198E-07
  0.115999997       1.04573746E-06
  0.116499998       1.10982114E-06
  0.116999999       1.17143327E-06
  0.117500000       1.23048278E-06
  0.118000001       1.28713305E-06
  0.118500002       1.34180539E-06
  0.119000003       1.39517260E-06
  0.119499996       1.44814180E-06
  0.119999997       1.50182984E-06
  0.120499998       1.55752980E-06
  0.120999999       1.61667265E-06
  0.121500000       1.68078384E-06
  0.122000001       1.75143862E-06
  0.122500002       1.83021655E-06
  0.123000003       1.91865911E-06
  0.123499997       2.01823036E-06
  0.123999998       2.13028306E-06
  0.124499999       2.25603185E-06
  0.125000000       2.39653332E-06
  0.125499994       2.55267742E-06
  0.126000002       2.72518491E-06
  0.126499996       2.91461333E-06
  0.127000004       3.12137308E-06
  0.127499998       3.34574884E-06
  0.128000006       3.58792772E-06
  0.128500000       3.84803252E-06
  0.128999993       4.12615600E-06
  0.129500002       4.42240071E-06
  0.129999995       4.73691716E-06
  0.130500004       5.06993865E-06
  0.130999997       5.42181715E-06
  0.131500006       5.79305379E-06
  0.131999999       6.18432477E-06
  0.132499993       6.59650277E-06
  0.133000001       7.03067508E-06
  0.133499995       7.48815046E-06
  0.134000003       7.97046505E-06
  0.134499997       8.47938554E-06
  0.135000005       9.01690055E-06
  0.135499999       9.58521196E-06
  0.136000007       1.01867281E-05
  0.136500001       1.08240420E-05
  0.136999995       1.14999175E-05
  0.137500003       1.22172705E-05
  0.137999997       1.29791524E-05
  0.138500005       1.37887291E-05
  0.138999999       1.46492621E-05
  0.139500007       1.55640973E-05
  0.140000001       1.65366419E-05
  0.140499994       1.75703553E-05
  0.141000003       1.86687466E-05
  0.141499996       1.98353555E-05
  0.142000005       2.10737599E-05
  0.142499998       2.23875686E-05
  0.143000007       2.37804343E-05
  0.143500000       2.52560640E-05
  0.143999994       2.68182375E-05
  0.144500002       2.84708185E-05
  0.144999996       3.02178050E-05
  0.145500004       3.20633371E-05
  0.145999998       3.40117658E-05
  0.146500006       3.60676713E-05
  0.147000000       3.82359431E-05
  0.147499993       4.05218088E-05
  0.148000002       4.29309002E-05
  0.148499995       4.54693181E-05
  0.149000004       4.81436728E-05
  0.149499997       5.09611527E-05
  0.150000006       5.39295797E-05
  0.150500000       5.70574230E-05
  0.150999993       6.03538865E-05
  0.151500002       6.38288839E-05
  0.151999995       6.74931143E-05
  0.152500004       7.13580084E-05
  0.152999997       7.54357970E-05
  0.153500006       7.97394241E-05
  0.153999999       8.42825684E-05
  0.154499993       8.90796146E-05
  0.155000001       9.41455946E-05
  0.155499995       9.94961592E-05
  0.156000003       1.05147512E-04
  0.156499997       1.11116402E-04
  0.157000005       1.17420066E-04
  0.157499999       1.24076163E-04
  0.158000007       1.31102832E-04
  0.158500001       1.38518619E-04
  0.158999994       1.46342543E-04
  0.159500003       1.54594047E-04
  0.159999996       1.63293065E-04
  0.160500005       1.72460161E-04
  0.160999998       1.82116521E-04
  0.161500007       1.92284046E-04
  0.162000000       2.02985553E-04
  0.162499994       2.14244807E-04
  0.163000003       2.26086690E-04
  0.163499996       2.38537323E-04
  0.164000005       2.51624238E-04
  0.164499998       2.65376526E-04
  0.165000007       2.79824890E-04
  0.165500000       2.95001868E-04
  0.165999994       3.10941919E-04
  0.166500002       3.27681453E-04
  0.166999996       3.45258944E-04
  0.167500004       3.63715109E-04
  0.167999998       3.83092905E-04
  0.168500006       4.03437443E-04
  0.169000000       4.24796104E-04
  0.169499993       4.47218656E-04
  0.170000002       4.70757106E-04
  0.170499995       4.95465763E-04
  0.171000004       5.21401293E-04
  0.171499997       5.48622629E-04
  0.172000006       5.77191066E-04
  0.172499999       6.07170106E-04
  0.172999993       6.38625643E-04
  0.173500001       6.71626010E-04
  0.173999995       7.06242165E-04
  0.174500003       7.42547272E-04
  0.174999997       7.80617294E-04
  0.175500005       8.20530811E-04
  0.175999999       8.62369314E-04
  0.176499993       9.06217145E-04
  0.177000001       9.52161849E-04
  0.177499995       1.00029423E-03
  0.178000003       1.05070847E-03
  0.178499997       1.10350223E-03
  0.179000005       1.15877704E-03
  0.179499999       1.21663837E-03
  0.180000007       1.27719564E-03
  0.180500001       1.34056283E-03
  0.180999994       1.40685833E-03
  0.181500003       1.47620519E-03
  0.181999996       1.54873123E-03
  0.182500005       1.62456906E-03
  0.182999998       1.70385686E-03
  0.183500007       1.78673794E-03
  0.184000000       1.87336165E-03
  0.184499994       1.96388247E-03
  0.185000002       2.05846131E-03
  0.185499996       2.15726439E-03
  0.186000004       2.26046471E-03
  0.186499998       2.36824155E-03
  0.187000006       2.48078140E-03
  0.187500000       2.59827683E-03
  0.187999994       2.72092805E-03
  0.188500002       2.84894183E-03
  0.188999996       2.98253284E-03
  0.189500004       3.12192226E-03
  0.189999998       3.26733990E-03
  0.190500006       3.41902301E-03
  0.191000000       3.57721699E-03
  0.191499993       3.74217564E-03
  0.192000002       3.91416019E-03
  0.192499995       4.09344211E-03
  0.193000004       4.28029895E-03
  0.193499997       4.47501987E-03
  0.194000006       4.67790104E-03
  0.194499999       4.88924840E-03
  0.194999993       5.10937721E-03
  0.195500001       5.33861294E-03
  0.195999995       5.57729043E-03
  0.196500003       5.82575379E-03
  0.196999997       6.08435785E-03
  0.197500005       6.35346863E-03
  0.197999999       6.63346285E-03
  0.198500007       6.92472700E-03
  0.199000001       7.22766016E-03
  0.199499995       7.54267443E-03
  0.200000003       7.87019078E-03
  0.200499997       8.21064599E-03
  0.201000005       8.56448710E-03
  0.201499999       8.93217605E-03
  0.202000007       9.31418594E-03
  0.202500001       9.71100666E-03
  0.202999994       1.01231383E-02
  0.203500003       1.05510969E-02
  0.203999996       1.09954150E-02
  0.204500005       1.14566386E-02
  0.204999998       1.19353272E-02
  0.205500007       1.24320574E-02
  0.206000000       1.29474187E-02
  0.206499994       1.34820174E-02
  0.207000002       1.40364757E-02
  0.207499996       1.46114314E-02
  0.208000004       1.52075356E-02
  0.208499998       1.58254579E-02
  0.209000006       1.64658837E-02
  0.209500000       1.71295125E-02
  0.209999993       1.78170633E-02
  0.210500002       1.85292661E-02
  0.210999995       1.92668736E-02
  0.211500004       2.00306457E-02
  0.211999997       2.08213702E-02
  0.212500006       2.16398425E-02
  0.213000000       2.24868748E-02
  0.213499993       2.33633015E-02
  0.214000002       2.42699720E-02
  0.214499995       2.52077524E-02
  0.215000004       2.61775237E-02
  0.215499997       2.71801855E-02
  0.216000006       2.82166582E-02
  0.216499999       2.92878728E-02
  0.216999993       3.03947851E-02
  0.217500001       3.15383598E-02
  0.217999995       3.27195823E-02
  0.218500003       3.39394584E-02
  0.218999997       3.51990014E-02
  0.219500005       3.64992544E-02
  0.219999999       3.78412642E-02
  0.220500007       3.92260998E-02
  0.221000001       4.06548567E-02
  0.221499994       4.21286263E-02
  0.222000003       4.36485335E-02
  0.222499996       4.52157035E-02
  0.223000005       4.68312912E-02
  0.223499998       4.84964475E-02
  0.224000007       5.02123609E-02
  0.224500000       5.19802049E-02
  0.224999994       5.38011789E-02
  0.225500003       5.56764938E-02
  0.225999996       5.76073825E-02
  0.226500005       5.95950708E-02
  0.226999998       6.16408028E-02
  0.227500007       6.37458339E-02
  0.228000000       6.59114346E-02
  0.228499994       6.81388676E-02
  0.229000002       7.04294071E-02
  0.229499996       7.27843344E-02
  0.230000004       7.52049461E-02
  0.230499998       7.76925310E-02
  0.231000006       8.02483857E-02
  0.231500000       8.28738138E-02
  0.231999993       8.55701119E-02
  0.232500002       8.83385688E-02
  0.232999995       9.11805034E-02
  0.233500004       9.40971971E-02
  0.233999997       9.70899388E-02
  0.234500006      0.100160018    
  0.234999999      0.103308715    
  0.235499993      0.106537312    
  0.236000001      0.109847046    
  0.236499995      0.113239184    
  0.237000003      0.116714954    
  0.237499997      0.120275587    
  0.238000005      0.123922288    
  0.238499999      0.127656236    
  0.238999993      0.131478608    
  0.239500001      0.135390520    
  0.239999995      0.139393076    
  0.240500003      0.143487394    
  0.240999997      0.147674516    
  0.241500005      0.151955470    
  0.241999999      0.156331256    
  0.242500007      0.160802811    
  0.243000001      0.165371060    
  0.243499994      0.170036852    
  0.244000003      0.174801037    
  0.244499996      0.179664403    
  0.245000005      0.184627667    
  0.245499998      0.189691514    
  0.246000007      0.194856584    
  0.246500000      0.200123444    
  0.246999994      0.205492616    
  0.247500002      0.210964531    
  0.247999996      0.216539606    
  0.248500004      0.222218156    
  0.248999998      0.228000402    
  0.249500006      0.233886540    
  0.250000000      0.239876628    
  0.250499994      0.245970681    
  0.250999987      0.252168596    
  0.251500010      0.258470178    
  0.252000004      0.264875233    
  0.252499998      0.271383345    
  0.252999991      0.277994066    
  0.253500015      0.284706831    
  0.254000008      0.291520983    
  0.254500002      0.298435718    
  0.254999995      0.305450141    
  0.255499989      0.312563241    
  0.256000012      0.319773912    
  0.256500006      0.327080876    
  0.256999999      0.334482759    
  0.257499993      0.341978043    
  0.257999986      0.349565059    
  0.258500010      0.357242018    
  0.259000003      0.365007013    
  0.259499997      0.372858018    
  0.259999990      0.380792797    
  0.260500014      0.388808966    
  0.261000007      0.396904081    
  0.261500001      0.405075431    
  0.261999995      0.413320214    
  0.262499988      0.421635360    
  0.263000011      0.430017740    
  0.263500005      0.438463986    
  0.263999999      0.446970552    
  0.264499992      0.455533713    
  0.264999986      0.464149624    
  0.265500009      0.472814143    
  0.266000003      0.481523186    
  0.266499996      0.490272224    
  0.266999990      0.499056607    
  0.267500013      0.507871568    
  0.268000007      0.516711950    
  0.268500000      0.525572598    
  0.268999994      0.534448087    
  0.269499987      0.543332875    
  0.270000011      0.552221119    
  0.270500004      0.561106741    
  0.270999998      0.569983542    
  0.271499991      0.578845084    
  0.272000015      0.587684810    
  0.272500008      0.596495807    
  0.273000002      0.605271041    
  0.273499995      0.614003241    
  0.273999989      0.622685015    
  0.274500012      0.631308496    
  0.275000006      0.639865935    
  0.275500000      0.648349226    
  0.275999993      0.656750023    
  0.276499987      0.665059805    
  0.277000010      0.673269987    
  0.277500004      0.681371510    
  0.277999997      0.689355254    
  0.278499991      0.697211921    
  0.279000014      0.704931974    
  0.279500008      0.712505579    
  0.280000001      0.719923019    
  0.280499995      0.727174044    
  0.280999988      0.734248459    
  0.281500012      0.741135836    
  0.282000005      0.747825563    
  0.282499999      0.754306912    
  0.282999992      0.760568917    
  0.283499986      0.766600490    
  0.284000009      0.772390425    
  0.284500003      0.777927458    
  0.284999996      0.783199966    
  0.285499990      0.788196146    
  0.286000013      0.792904317    
  0.286500007      0.797312498    
  0.287000000      0.801408768    
  0.287499994      0.805180848    
  0.287999988      0.808616579    
  0.288500011      0.811703503    
  0.289000005      0.814429283    
  0.289499998      0.816781402    
  0.289999992      0.818747282    
  0.290499985      0.820314527    
  0.291000009      0.821470320    
  0.291500002      0.822202206    
  0.291999996      0.822497427    
  0.292499989      0.822343409    
  0.293000013      0.821727514    
  0.293500006      0.820637226    
  0.294000000      0.819059849    
  0.294499993      0.816983044    
  0.294999987      0.814394534    
  0.295500010      0.811281919    
  0.296000004      0.807633102    
  0.296499997      0.803435862    
  0.296999991      0.798678100    
  0.297500014      0.793348014    
  0.298000008      0.787433863    
  0.298500001      0.780924141    
  0.298999995      0.773807704    
  0.299499989      0.766073227    
  0.300000012      0.757709801    
  0.300500005      0.748706698    
  0.300999999      0.739053547    
  0.301499993      0.728740036    
  0.301999986      0.717756212    
  0.302500010      0.706092358    
  0.303000003      0.693739176    
  0.303499997      0.680687666    
  0.303999990      0.666929245    
  0.304500014      0.652455866    
  0.305000007      0.637259424    
  0.305500001      0.621332645    
  0.305999994      0.604668498    
  0.306499988      0.587260425    
  0.307000011      0.569102466    
  0.307500005      0.550189137    
  0.307999998      0.530515254    
  0.308499992      0.510076284    
  0.308999985      0.488868117    
  0.309500009      0.466887295    
  0.310000002      0.444131017    
  0.310499996      0.420596927    
  0.310999990      0.396283150    
  0.311500013      0.371188581    
  0.312000006      0.345312804    
  0.312500000      0.318655849    
  0.312999994      0.291218370    
  0.313499987      0.263001949    
  0.314000010      0.234008715    
  0.314500004      0.204241350    
  0.314999998      0.173703372    
  0.315499991      0.142398939    
  0.316000015      0.110332824    
  0.316500008       7.75106922E-02
  0.317000002       4.39389944E-02
  0.317499995       9.62507352E-03
  0.317999989      -2.54228860E-02
  0.318500012      -6.11959733E-02
  0.319000006      -9.76846069E-02
  0.319499999     -0.134878114    
  0.319999993     -0.172765076    
  0.320499986     -0.211333573    
  0.321000010     -0.250570625    
  0.321500003     -0.290462196    
  0.321999997     -0.330993712    
  0.322499990     -0.372149795    
  0.323000014     -0.413914144    
  0.323500007     -0.456269711    
  0.324000001     -0.499198586    
  0.324499995     -0.542681813    
  0.324999988     -0.586699724    
  0.325500011     -0.631231785    
  0.326000005     -0.676256597    
  0.326499999     -0.721752167    
  0.326999992     -0.767695427    
  0.327499986     -0.814062536    
  0.328000009     -0.860828876    
  0.328500003     -0.907968938    
  0.328999996     -0.955456495    
  0.329499990      -1.00326431    
  0.330000013      -1.05136490    
  0.330500007      -1.09972930    
  0.331000000      -1.14832842    
  0.331499994      -1.19713223    
  0.331999987      -1.24610996    
  0.332500011      -1.29523003    
  0.333000004      -1.34446073    
  0.333499998      -1.39376891    
  0.333999991      -1.44312179    
  0.334500015      -1.49248517    
  0.335000008      -1.54182446    
  0.335500002      -1.59110487    
  0.335999995      -1.64029038    
  0.336499989      -1.68934512    
  0.337000012      -1.73823261    
  0.337500006      -1.78691554    
  0.338000000      -1.83535647    
  0.338499993      -1.88351738    
  0.338999987      -1.93136036    
  0.339500010      -1.97884655    
  0.340000004      -2.02593708    
  0.340499997      -2.07259226    
  0.340999991      -2.11877322    
  0.341500014      -2.16444016    
  0.342000008      -2.20955300    
  0.342500001      -2.25407219    
  0.342999995      -2.29795742    
  0.343499988      -2.34116864    
  0.344000012      -2.38366604    
  0.344500005      -2.42540932    
  0.344999999      -2.46635866    
  0.345499992      -2.50647449    
  0.345999986      -2.54571700    
  0.346500009      -2.58404684    
  0.347000003      -2.62142491    
  0.347499996      -2.65781283    
  0.347999990      -2.69317150    
  0.348500013      -2.72746301    
  0.349000007      -2.76064944    
  0.349500000      -2.79269385    
  0.349999994      -2.82355905    
  0.350499988      -2.85320902    
  0.351000011      -2.88160801    
  0.351500005      -2.90872169    
  0.351999998      -2.93451500    
  0.352499992      -2.95895481    
  0.352999985      -2.98200822    
  0.353500009      -3.00364304    
  0.354000002      -3.02382851    
  0.354499996      -3.04253411    
  0.354999989      -3.05973077    
  0.355500013      -3.07539010    
  0.356000006      -3.08948469    
  0.356500000      -3.10198855    
  0.356999993      -3.11287665    
  0.357499987      -3.12212491    
  0.358000010      -3.12971067    
  0.358500004      -3.13561249    
  0.358999997      -3.13980985    
  0.359499991      -3.14228415    
  0.360000014      -3.14301705    
  0.360500008      -3.14199257    
  0.361000001      -3.13919568    
  0.361499995      -3.13461304    
  0.361999989      -3.12823224    
  0.362500012      -3.12004209    
  0.363000005      -3.11003399    
  0.363499999      -3.09819961    
  0.363999993      -3.08453345    
  0.364499986      -3.06903005    
  0.365000010      -3.05168653    
  0.365500003      -3.03250122    
  0.365999997      -3.01147461    
  0.366499990      -2.98860765    
  0.367000014      -2.96390390    
  0.367500007      -2.93736863    
  0.368000001      -2.90900803    
  0.368499994      -2.87883043    
  0.368999988      -2.84684634    
  0.369500011      -2.81306648    
  0.370000005      -2.77750468    
  0.370499998      -2.74017596    
  0.370999992      -2.70109701    
  0.371499985      -2.66028690    
  0.372000009      -2.61776519    
  0.372500002      -2.57355356    
  0.372999996      -2.52767539    
  0.373499990      -2.48015523    
  0.374000013      -2.43102050    
  0.374500006      -2.38029838    
  0.375000000      -2.32801843    
  0.375499994      -2.27421236    
  0.375999987      -2.21891284    
  0.376500010      -2.16215301    
  0.377000004      -2.10396862    
  0.377499998      -2.04439664    
  0.377999991      -1.98347557    
  0.378500015      -1.92124474    
  0.379000008      -1.85774541    
  0.379500002      -1.79301953    
  0.379999995      -1.72711098    
  0.380499989      -1.66006470    
  0.381000012      -1.59192634    
  0.381500006      -1.52274346    
  0.381999999      -1.45256436    
  0.382499993      -1.38143826    
  0.382999986      -1.30941534    
  0.383500010      -1.23654687    
  0.384000003      -1.16288531    
  0.384499997      -1.08848321    
  0.384999990      -1.01339436    
  0.385500014     -0.937673807    
  0.386000007     -0.861375988    
  0.386500001     -0.784556627    
  0.386999995     -0.707271993    
  0.387499988     -0.629578948    
  0.388000011     -0.551534772    
  0.388500005     -0.473196834    
  0.388999999     -0.394623071    
  0.389499992     -0.315871626    
  0.389999986     -0.237000734    
  0.390500009     -0.158069178    
  0.391000003      -7.91356564E-02
  0.391499996      -2.58663407E-04
  0.391999990       7.85031021E-02
  0.392500013      0.157091156    
  0.393000007      0.235447153    
  0.393500000      0.313512713    
  0.393999994      0.391230315    
  0.394499987      0.468542755    
  0.395000011      0.545392692    
  0.395500004      0.621723771    
  0.395999998      0.697480619    
  0.396499991      0.772607684    
  0.397000015      0.847050250    
  0.397500008      0.920754910    
  0.398000002      0.993668854    
  0.398499995       1.06573999    
  0.398999989       1.13691735    
  0.399500012       1.20715106    
  0.400000006       1.27639186    
  0.400500000       1.34459150    
  0.400999993       1.41170359    
  0.401499987       1.47768211    
  0.402000010       1.54248309    
  0.402500004       1.60606301    
  0.402999997       1.66837990    
  0.403499991       1.72939301    
  0.404000014       1.78906298    
  0.404500008       1.84735215    
  0.405000001       1.90422428    
  0.405499995       1.95964491    
  0.405999988       2.01358104    
  0.406500012       2.06600094    
  0.407000005       2.11687469    
  0.407499999       2.16617322    
  0.407999992       2.21387053    
  0.408499986       2.25994182    
  0.409000009       2.30436373    
  0.409500003       2.34711504    
  0.409999996       2.38817596    
  0.410499990       2.42752838    
  0.411000013       2.46515608    
  0.411500007       2.50104523    
  0.412000000       2.53518319    
  0.412499994       2.56755900    
  0.412999988       2.59816384    
  0.413500011       2.62699056    
  0.414000005       2.65403342    
  0.414499998       2.67928886    
  0.414999992       2.70275521    
  0.415499985       2.72443199    
  0.416000009       2.74432135    
  0.416500002       2.76242661    
  0.416999996       2.77875233    
  0.417499989       2.79330540    
  0.418000013       2.80609465    
  0.418500006       2.81713033    
  0.419000000       2.82642388    
  0.419499993       2.83398890    
  0.419999987       2.83984041    
  0.420500010       2.84399486    
  0.421000004       2.84647059    
  0.421499997       2.84728718    
  0.421999991       2.84646559    
  0.422500014       2.84402871    
  0.423000008       2.84000039    
  0.423500001       2.83440638    
  0.423999995       2.82727265    
  0.424499989       2.81862712    
  0.425000012       2.80849934    
  0.425500005       2.79691958    
  0.425999999       2.78391862    
  0.426499993       2.76952910    
  0.426999986       2.75378442    
  0.427500010       2.73671865    
  0.428000003       2.71836758    