   0.00000000       0.00000000    
   5.00000024E-04   4.09978637E-13
   1.00000005E-03   1.21770617E-12
   1.50000001E-03   2.37216605E-12
   2.00000009E-03   3.78881345E-12
   2.49999994E-03   5.35776371E-12
   3.00000003E-03   6.95354104E-12
   3.50000011E-03   8.44471802E-12
   4.00000019E-03   9.70170905E-12
   4.49999981E-03   1.06011719E-11
   4.99999989E-03   1.10258521E-11
   5.49999997E-03   1.08593542E-11
   6.00000005E-03   9.97606425E-12
   6.50000013E-03   8.22730079E-12
   7.00000022E-03   5.42555367E-12
   7.49999983E-03   1.32938940E-12
   8.00000038E-03  -4.36797517E-12
   8.50000046E-03  -1.20432032E-11
   8.99999961E-03  -2.21374481E-11
   9.49999969E-03  -3.51385518E-11
   9.99999978E-03  -5.15492683E-11
   1.04999999E-02  -7.18411095E-11
   1.09999999E-02  -9.63949545E-11
   1.15000000E-02  -1.25431068E-10
   1.20000001E-02  -1.58932770E-10
   1.25000002E-02  -1.96569400E-10
   1.30000003E-02  -2.37625253E-10
   1.35000004E-02  -2.80941909E-10
   1.40000004E-02  -3.24881483E-10
   1.44999996E-02  -3.67317426E-10
   1.49999997E-02  -4.05659117E-10
   1.54999997E-02  -4.36913755E-10
   1.60000008E-02  -4.57787586E-10
   1.64999999E-02  -4.64824790E-10
   1.70000009E-02  -4.54580679E-10
   1.75000001E-02  -4.23821506E-10
   1.79999992E-02  -3.69740849E-10
   1.85000002E-02  -2.90181434E-10
   1.89999994E-02  -1.83846646E-10
   1.95000004E-02  -5.04888457E-11
   1.99999996E-02   1.08941835E-10
   2.05000006E-02   2.92200597E-10
   2.09999997E-02   4.95715524E-10
   2.15000007E-02   7.14626136E-10
   2.19999999E-02   9.42898870E-10
   2.25000009E-02   1.17351795E-09
   2.30000000E-02   1.39874712E-09
   2.34999992E-02   1.61045122E-09
   2.40000002E-02   1.80046444E-09
   2.44999994E-02   1.96098471E-09
   2.50000004E-02   2.08497419E-09
   2.54999995E-02   2.16654317E-09
   2.60000005E-02   2.20129337E-09
   2.64999997E-02   2.18659890E-09
   2.70000007E-02   2.12180384E-09
   2.74999999E-02   2.00832684E-09
   2.80000009E-02   1.84965621E-09
   2.85000000E-02   1.65123737E-09
   2.89999992E-02   1.42025247E-09
   2.95000002E-02   1.16530441E-09
   2.99999993E-02   8.96019592E-10
   3.05000003E-02   6.22593643E-10
   3.09999995E-02   3.55303398E-10
   3.15000005E-02   1.04016136E-10
   3.20000015E-02  -1.22275176E-10
   3.24999988E-02  -3.15861726E-10
   3.29999998E-02  -4.70647521E-10
   3.35000008E-02  -5.82376647E-10
   3.40000018E-02  -6.48743503E-10
   3.44999991E-02  -6.69378220E-10
   3.50000001E-02  -6.45708431E-10
   3.55000012E-02  -5.80706594E-10
   3.59999985E-02  -4.78538154E-10
   3.64999995E-02  -3.44134693E-10
   3.70000005E-02  -1.82720852E-10
   3.75000015E-02   6.71132149E-13
   3.79999988E-02   2.01668238E-10
   3.84999998E-02   4.16967627E-10
   3.90000008E-02   6.44665099E-10
   3.95000018E-02   8.84474105E-10
   3.99999991E-02   1.13781828E-09
   4.05000001E-02   1.40778900E-09
   4.10000011E-02   1.69896475E-09
   4.14999984E-02   2.01710759E-09
   4.19999994E-02   2.36875142E-09
   4.25000004E-02   2.76071010E-09
   4.30000015E-02   3.19954063E-09
   4.34999987E-02   3.69100017E-09
   4.39999998E-02   4.23952873E-09
   4.45000008E-02   4.84781149E-09
   4.50000018E-02   5.51644419E-09
   4.54999991E-02   6.24373309E-09
   4.60000001E-02   7.02565783E-09
   4.65000011E-02   7.85599497E-09
   4.69999984E-02   8.72661765E-09
   4.74999994E-02   9.62795355E-09
   4.80000004E-02   1.05495701E-08
   4.85000014E-02   1.14808651E-08
   4.89999987E-02   1.24118182E-08
   4.94999997E-02   1.33337617E-08
   5.00000007E-02   1.42401175E-08
   5.05000018E-02   1.51270392E-08
   5.09999990E-02   1.59939422E-08
   5.15000001E-02   1.68438596E-08
   5.20000011E-02   1.76836146E-08
   5.24999984E-02   1.85237550E-08
   5.29999994E-02   1.93783141E-08
   5.35000004E-02   2.02643253E-08
   5.40000014E-02   2.12011777E-08
   5.44999987E-02   2.22098180E-08
   5.49999997E-02   2.33118449E-08
   5.55000007E-02   2.45285712E-08
   5.60000017E-02   2.58800732E-08
   5.64999990E-02   2.73843295E-08
   5.70000000E-02   2.90564532E-08
   5.75000010E-02   3.09081400E-08
   5.79999983E-02   3.29473053E-08
   5.84999993E-02   3.51779370E-08
   5.90000004E-02   3.76002554E-08
   5.95000014E-02   4.02110771E-08
   5.99999987E-02   4.30044480E-08
   6.04999997E-02   4.59724419E-08
   6.10000007E-02   4.91061556E-08
   6.15000017E-02   5.23967607E-08
   6.19999990E-02   5.58366153E-08
   6.25000000E-02   5.94203655E-08
   6.30000010E-02   6.31459329E-08
   6.35000020E-02   6.70153639E-08
   6.40000030E-02   7.10354442E-08
   6.44999966E-02   7.52181961E-08
   6.49999976E-02   7.95809072E-08
   6.54999986E-02   8.41461230E-08
   6.59999996E-02   8.89412206E-08
   6.65000007E-02   9.39977909E-08
   6.70000017E-02   9.93508849E-08
   6.75000027E-02   1.05037969E-07
   6.80000037E-02   1.11098011E-07
   6.84999973E-02   1.17570380E-07
   6.89999983E-02   1.24493852E-07
   6.94999993E-02   1.31905722E-07
   7.00000003E-02   1.39841106E-07
   7.05000013E-02   1.48332461E-07
   7.10000023E-02   1.57409318E-07
   7.15000033E-02   1.67098264E-07
   7.19999969E-02   1.77423317E-07
   7.24999979E-02   1.88406361E-07
   7.29999989E-02   2.00067916E-07
   7.34999999E-02   2.12428091E-07
   7.40000010E-02   2.25507549E-07
   7.45000020E-02   2.39328671E-07
   7.50000030E-02   2.53916568E-07
   7.54999965E-02   2.69300159E-07
   7.59999976E-02   2.85513039E-07
   7.64999986E-02   3.02594117E-07
   7.69999996E-02   3.20588271E-07
   7.75000006E-02   3.39546375E-07
   7.80000016E-02   3.59525643E-07
   7.85000026E-02   3.80589285E-07
   7.90000036E-02   4.02805995E-07
   7.94999972E-02   4.26249613E-07
   7.99999982E-02   4.50998385E-07
   8.04999992E-02   4.77134222E-07
   8.10000002E-02   5.04741934E-07
   8.15000013E-02   5.33908633E-07
   8.20000023E-02   5.64723166E-07
   8.25000033E-02   5.97275687E-07
   8.29999968E-02   6.31657485E-07
   8.34999979E-02   6.67960990E-07
   8.39999989E-02   7.06280218E-07
   8.44999999E-02   7.46710725E-07
   8.50000009E-02   7.89350906E-07
   8.55000019E-02   8.34302284E-07
   8.60000029E-02   8.81670701E-07
   8.64999965E-02   9.31567570E-07
   8.69999975E-02   9.84110443E-07
   8.74999985E-02   1.03942466E-06
   8.79999995E-02   1.09764358E-06
   8.85000005E-02   1.15891021E-06
   8.90000015E-02   1.22337690E-06
   8.95000026E-02   1.29120679E-06
   9.00000036E-02   1.36257393E-06
   9.04999971E-02   1.43766272E-06
   9.09999982E-02   1.51666859E-06
   9.14999992E-02   1.59979800E-06
   9.20000002E-02   1.68726763E-06
   9.25000012E-02   1.77930440E-06
   9.30000022E-02   1.87614546E-06
   9.35000032E-02   1.97803774E-06
   9.39999968E-02   2.08523761E-06
   9.44999978E-02   2.19801086E-06
   9.49999988E-02   2.31663330E-06
   9.54999998E-02   2.44139119E-06
   9.60000008E-02   2.57258080E-06
   9.65000018E-02   2.71050999E-06
   9.70000029E-02   2.85549913E-06
   9.74999964E-02   3.00788133E-06
   9.79999974E-02   3.16800379E-06
   9.84999985E-02   3.33622938E-06
   9.89999995E-02   3.51293625E-06
   9.95000005E-02   3.69852114E-06
  0.100000001       3.89339857E-06
  0.100500003       4.09800350E-06
  0.101000004       4.31278977E-06
  0.101499997       4.53823304E-06
  0.101999998       4.77482990E-06
  0.102499999       5.02310013E-06
  0.103000000       5.28358578E-06
  0.103500001       5.55685074E-06
  0.104000002       5.84348390E-06
  0.104500003       6.14409782E-06
  0.104999997       6.45933096E-06
  0.105499998       6.78984588E-06
  0.105999999       7.13633199E-06
  0.106500000       7.49950595E-06
  0.107000001       7.88011494E-06
  0.107500002       8.27893382E-06
  0.108000003       8.69677206E-06
  0.108499996       9.13447275E-06
  0.108999997       9.59291174E-06
  0.109499998       1.00730049E-05
  0.109999999       1.05757081E-05
  0.110500000       1.11020181E-05
  0.111000001       1.16529727E-05
  0.111500002       1.22296569E-05
  0.112000003       1.28332022E-05
  0.112499997       1.34647889E-05
  0.112999998       1.41256451E-05
  0.113499999       1.48170484E-05
  0.114000000       1.55403268E-05
  0.114500001       1.62968590E-05
  0.115000002       1.70880849E-05
  0.115500003       1.79154886E-05
  0.115999997       1.87806090E-05
  0.116499998       1.96850469E-05
  0.116999999       2.06304558E-05
  0.117500000       2.16185472E-05
  0.118000001       2.26510983E-05
  0.118500002       2.37299464E-05
  0.119000003       2.48569922E-05
  0.119499996       2.60342058E-05
  0.119999997       2.72636298E-05
  0.120499998       2.85473852E-05
  0.120999999       2.98876657E-05
  0.121500000       3.12867523E-05
  0.122000001       3.27470152E-05
  0.122500002       3.42709136E-05
  0.123000003       3.58609941E-05
  0.123499997       3.75199161E-05
  0.123999998       3.92504262E-05
  0.124499999       4.10553766E-05
  0.125000000       4.29377433E-05
  0.125499994       4.49005929E-05
  0.126000002       4.69471161E-05
  0.126499996       4.90806015E-05
  0.127000004       5.13044724E-05
  0.127499998       5.36222615E-05
  0.128000006       5.60376284E-05
  0.128500000       5.85543421E-05
  0.128999993       6.11763098E-05
  0.129500002       6.39075515E-05
  0.129999995       6.67522327E-05
  0.130500004       6.97146315E-05
  0.130999997       7.27991865E-05
  0.131500006       7.60104595E-05
  0.131999999       7.93531872E-05
  0.132499993       8.28322081E-05
  0.133000001       8.64525646E-05
  0.133499995       9.02194442E-05
  0.134000003       9.41381877E-05
  0.134499997       9.82143611E-05
  0.135000005       1.02453669E-04
  0.135499999       1.06862004E-04
  0.136000007       1.11445472E-04
  0.136500001       1.16210365E-04
  0.136999995       1.21163182E-04
  0.137500003       1.26310653E-04
  0.137999997       1.31659719E-04
  0.138500005       1.37217474E-04
  0.138999999       1.42991339E-04
  0.139500007       1.48988882E-04
  0.140000001       1.55217931E-04
  0.140499994       1.61686519E-04
  0.141000003       1.68402970E-04
  0.141499996       1.75375768E-04
  0.142000005       1.82613701E-04
  0.142499998       1.90125807E-04
  0.143000007       1.97921370E-04
  0.143500000       2.06009878E-04
  0.143999994       2.14401138E-04
  0.144500002       2.23105206E-04
  0.144999996       2.32132428E-04
  0.145500004       2.41493399E-04
  0.145999998       2.51199061E-04
  0.146500006       2.61260575E-04
  0.147000000       2.71689496E-04
  0.147499993       2.82497640E-04
  0.148000002       2.93697172E-04
  0.148499995       3.05300520E-04
  0.149000004       3.17320577E-04
  0.149499997       3.29770468E-04
  0.150000006       3.42663669E-04
  0.150500000       3.56014061E-04
  0.150999993       3.69835820E-04
  0.151500002       3.84143670E-04
  0.151999995       3.98952427E-04
  0.152500004       4.14277514E-04
  0.152999997       4.30134591E-04
  0.153500006       4.46539751E-04
  0.153999999       4.63509408E-04
  0.154499993       4.81060473E-04
  0.155000001       4.99210204E-04
  0.155499995       5.17976179E-04
  0.156000003       5.37376502E-04
  0.156499997       5.57429623E-04
  0.157000005       5.78154344E-04
  0.157499999       5.99569932E-04
  0.158000007       6.21696003E-04
  0.158500001       6.44552696E-04
  0.158999994       6.68160559E-04
  0.159500003       6.92540605E-04
  0.159999996       7.17714196E-04
  0.160500005       7.43703044E-04
  0.160999998       7.70529616E-04
  0.161500007       7.98216672E-04
  0.162000000       8.26787320E-04
  0.162499994       8.56265193E-04
  0.163000003       8.86674330E-04
  0.163499996       9.18039295E-04
  0.164000005       9.50385176E-04
  0.164499998       9.83737409E-04
  0.165000007       1.01812219E-03
  0.165500000       1.05356553E-03
  0.165999994       1.09009433E-03
  0.166500002       1.12773606E-03
  0.166999996       1.16651854E-03
  0.167500004       1.20646995E-03
  0.167999998       1.24761893E-03
  0.168500006       1.28999446E-03
  0.169000000       1.33362622E-03
  0.169499993       1.37854426E-03
  0.170000002       1.42477907E-03
  0.170499995       1.47236127E-03
  0.171000004       1.52132241E-03
  0.171499997       1.57169416E-03
  0.172000006       1.62350852E-03
  0.172499999       1.67679798E-03
  0.172999993       1.73159572E-03
  0.173500001       1.78793457E-03
  0.173999995       1.84584875E-03
  0.174500003       1.90537225E-03
  0.174999997       1.96653930E-03
  0.175500005       2.02938495E-03
  0.175999999       2.09394400E-03
  0.176499993       2.16025230E-03
  0.177000001       2.22834502E-03
  0.177499995       2.29825871E-03
  0.178000003       2.37002969E-03
  0.178499997       2.44369404E-03
  0.179000005       2.51928926E-03
  0.179499999       2.59685190E-03
  0.180000007       2.67641922E-03
  0.180500001       2.75802868E-03
  0.180999994       2.84171803E-03
  0.181500003       2.92752450E-03
  0.181999996       3.01548606E-03
  0.182500005       3.10564064E-03
  0.182999998       3.19802575E-03
  0.183500007       3.29267979E-03
  0.184000000       3.38964048E-03
  0.184499994       3.48894531E-03
  0.185000002       3.59063246E-03
  0.185499996       3.69473989E-03
  0.186000004       3.80130485E-03
  0.186499998       3.91036458E-03
  0.187000006       4.02195705E-03
  0.187500000       4.13611857E-03
  0.187999994       4.25288640E-03
  0.188500002       4.37229685E-03
  0.188999996       4.49438626E-03
  0.189500004       4.61919047E-03
  0.189999998       4.74674487E-03
  0.190500006       4.87708440E-03
  0.191000000       5.01024211E-03
  0.191499993       5.14625292E-03
  0.192000002       5.28514991E-03
  0.192499995       5.42696612E-03
  0.193000004       5.57173137E-03
  0.193499997       5.71947824E-03
  0.194000006       5.87023562E-03
  0.194499999       6.02403330E-03
  0.194999993       6.18089875E-03
  0.195500001       6.34085853E-03
  0.195999995       6.50394056E-03
  0.196500003       6.67016767E-03
  0.196999997       6.83956360E-03
  0.197500005       7.01215165E-03
  0.197999999       7.18795182E-03
  0.198500007       7.36698415E-03
  0.199000001       7.54926773E-03
  0.199499995       7.73481885E-03
  0.200000003       7.92365242E-03
  0.200499997       8.11578240E-03
  0.201000005       8.31122044E-03
  0.201499999       8.50997679E-03
  0.202000007       8.71206075E-03
  0.202500001       8.91747791E-03
  0.202999994       9.12623294E-03
  0.203500003       9.33832768E-03
  0.203999996       9.55376215E-03
  0.204500005       9.77253448E-03
  0.204999998       9.99464002E-03
  0.205500007       1.02200722E-02
  0.206000000       1.04488209E-02
  0.206499994       1.06808739E-02
  0.207000002       1.09162163E-02
  0.207499996       1.11548295E-02
  0.208000004       1.13966949E-02
  0.208499998       1.16417874E-02
  0.209000006       1.18900808E-02
  0.209500000       1.21415453E-02
  0.209999993       1.23961484E-02
  0.210500002       1.26538547E-02
  0.210999995       1.29146241E-02
  0.211500004       1.31784165E-02
  0.211999997       1.34451846E-02
  0.212500006       1.37148807E-02
  0.213000000       1.39874509E-02
  0.213499993       1.42628374E-02
  0.214000002       1.45409815E-02
  0.214499995       1.48218200E-02
  0.215000004       1.51052820E-02
  0.215499997       1.53912976E-02
  0.216000006       1.56797916E-02
  0.216499999       1.59706827E-02
  0.216999993       1.62638873E-02
  0.217500001       1.65593196E-02
  0.217999995       1.68568846E-02
  0.218500003       1.71564817E-02
  0.218999997       1.74580123E-02
  0.219500005       1.77613683E-02
  0.219999999       1.80664379E-02
  0.220500007       1.83731075E-02
  0.221000001       1.86812542E-02
  0.221499994       1.89907532E-02
  0.222000003       1.93014722E-02
  0.222499996       1.96132790E-02
  0.223000005       1.99260321E-02
  0.223499998       2.02395860E-02
  0.224000007       2.05537938E-02
  0.224500000       2.08684970E-02
  0.224999994       2.11835336E-02
  0.225500003       2.14987434E-02
  0.225999996       2.18139552E-02
  0.226500005       2.21289936E-02
  0.226999998       2.24436782E-02
  0.227500007       2.27578282E-02
  0.228000000       2.30712481E-02
  0.228499994       2.33837496E-02
  0.229000002       2.36951280E-02
  0.229499996       2.40051802E-02
  0.230000004       2.43136976E-02
  0.230499998       2.46204641E-02
  0.231000006       2.49252617E-02
  0.231500000       2.52278652E-02
  0.231999993       2.55280398E-02
  0.232500002       2.58255564E-02
  0.232999995       2.61201765E-02
  0.233500004       2.64116488E-02
  0.233999997       2.66997293E-02
  0.234500006       2.69841664E-02
  0.234999999       2.72646900E-02
  0.235499993       2.75410470E-02
  0.236000001       2.78129652E-02
  0.236499995       2.80801728E-02
  0.237000003       2.83423979E-02
  0.237499997       2.85993610E-02
  0.238000005       2.88507715E-02
  0.238499999       2.90963445E-02
  0.238999993       2.93357894E-02
  0.239500001       2.95688137E-02
  0.239999995       2.97951177E-02
  0.240500003       3.00144032E-02
  0.240999997       3.02263685E-02
  0.241500005       3.04307006E-02
  0.241999999       3.06270905E-02
  0.242500007       3.08152344E-02
  0.243000001       3.09948083E-02
  0.243499994       3.11655067E-02
  0.244000003       3.13270055E-02
  0.244499996       3.14789899E-02
  0.245000005       3.16211320E-02
  0.245499998       3.17531154E-02
  0.246000007       3.18746157E-02
  0.246500000       3.19853015E-02
  0.246999994       3.20848525E-02
  0.247500002       3.21729481E-02
  0.247999996       3.22492570E-02
  0.248500004       3.23134512E-02
  0.248999998       3.23652141E-02
  0.249500006       3.24042141E-02
  0.250000000       3.24301310E-02
  0.250499994       3.24426442E-02
  0.250999987       3.24414298E-02
  0.251500010       3.24261747E-02
  0.252000004       3.23965624E-02
  0.252499998       3.23522799E-02
  0.252999991       3.22930142E-02
  0.253500015       3.22184674E-02
  0.254000008       3.21283303E-02
  0.254500002       3.20223086E-02
  0.254999995       3.19001079E-02
  0.255499989       3.17614414E-02
  0.256000012       3.16060260E-02
  0.256500006       3.14335786E-02
  0.256999999       3.12438328E-02
  0.257499993       3.10365185E-02
  0.257999986       3.08113806E-02
  0.258500010       3.05681601E-02
  0.259000003       3.03066112E-02
  0.259499997       3.00264973E-02
  0.259999990       2.97275893E-02
  0.260500014       2.94096600E-02
  0.261000007       2.90724952E-02
  0.261500001       2.87158899E-02
  0.261999995       2.83396505E-02
  0.262499988       2.79435851E-02
  0.263000011       2.75275186E-02
  0.263500005       2.70912889E-02
  0.263999999       2.66347360E-02
  0.264499992       2.61577200E-02
  0.264999986       2.56601032E-02
  0.265500009       2.51417700E-02
  0.266000003       2.46026106E-02
  0.266499996       2.40425318E-02
  0.266999990       2.34614518E-02
  0.267500013       2.28592996E-02
  0.268000007       2.22360212E-02
  0.268500000       2.15915795E-02
  0.268999994       2.09259447E-02
  0.269499987       2.02391036E-02
  0.270000011       1.95310656E-02
  0.270500004       1.88018437E-02
  0.270999998       1.80514734E-02
  0.271499991       1.72800049E-02
  0.272000015       1.64875016E-02
  0.272500008       1.56740434E-02
  0.273000002       1.48397293E-02
  0.273499995       1.39846718E-02
  0.273999989       1.31090023E-02
  0.274500012       1.22128651E-02
  0.275000006       1.12964269E-02
  0.275500000       1.03598665E-02
  0.275999993       9.40338336E-03
  0.276499987       8.42719246E-03
  0.277000010       7.43152853E-03
  0.277500004       6.41664350E-03
  0.277999997       5.38280699E-03
  0.278499991       4.33030631E-03
  0.279000014       3.25944764E-03
  0.279500008       2.17055576E-03
  0.280000001       1.06397248E-03
  0.280499995      -5.99408668E-05
  0.280999988      -1.20080495E-03
  0.281500012      -2.35822052E-03
  0.282000005      -3.53177334E-03
  0.282499999      -4.72102826E-03
  0.282999992      -5.92553290E-03
  0.283499986      -7.14481622E-03
  0.284000009      -8.37838836E-03
  0.284500003      -9.62574594E-03
  0.284999996      -1.08863628E-02
  0.285499990      -1.21597005E-02
  0.286000013      -1.34452013E-02
  0.286500007      -1.47422887E-02
  0.287000000      -1.60503723E-02
  0.287499994      -1.73688456E-02
  0.287999988      -1.86970811E-02
  0.288500011      -2.00344454E-02
  0.289000005      -2.13802774E-02
  0.289499998      -2.27339100E-02
  0.289999992      -2.40946580E-02
  0.290499985      -2.54618227E-02
  0.291000009      -2.68346835E-02
  0.291500002      -2.82125175E-02
  0.291999996      -2.95945872E-02
  0.292499989      -3.09801307E-02
  0.293000013      -3.23683880E-02
  0.293500006      -3.37585770E-02
  0.294000000      -3.51499133E-02
  0.294499993      -3.65415923E-02
  0.294999987      -3.79328020E-02
  0.295500010      -3.93227190E-02
  0.296000004      -4.07105200E-02
  0.296499997      -4.20953631E-02
  0.296999991      -4.34764028E-02
  0.297500014      -4.48527783E-02
  0.298000008      -4.62236367E-02
  0.298500001      -4.75881174E-02
  0.298999995      -4.89453338E-02
  0.299499989      -5.02944253E-02
  0.300000012      -5.16344979E-02
  0.300500005      -5.29646724E-02
  0.300999999      -5.42840697E-02
  0.301499993      -5.55917956E-02
  0.301999986      -5.68869710E-02
  0.302500010      -5.81686944E-02
  0.303000003      -5.94360828E-02
  0.303499997      -6.06882535E-02
  0.303999990      -6.19243160E-02
  0.304500014      -6.31433949E-02
  0.305000007      -6.43446073E-02
  0.305500001      -6.55270889E-02
  0.305999994      -6.66899607E-02
  0.306499988      -6.78323582E-02
  0.307000011      -6.89534247E-02
  0.307500005      -7.00523183E-02
  0.307999998      -7.11281970E-02
  0.308499992      -7.21802264E-02
  0.308999985      -7.32075796E-02
  0.309500009      -7.42094517E-02
  0.310000002      -7.51850381E-02
  0.310499996      -7.61335492E-02
  0.310999990      -7.70542249E-02
  0.311500013      -7.79462904E-02
  0.312000006      -7.88090006E-02
  0.312500000      -7.96416327E-02
  0.312999994      -8.04434642E-02
  0.313499987      -8.12138170E-02
  0.314000010      -8.19519982E-02
  0.314500004      -8.26573446E-02
  0.314999998      -8.33292231E-02
  0.315499991      -8.39670151E-02
  0.316000015      -8.45701247E-02
  0.316500008      -8.51379558E-02
  0.317000002      -8.56699646E-02
  0.317499995      -8.61656144E-02
  0.317999989      -8.66243839E-02
  0.318500012      -8.70458037E-02
  0.319000006      -8.74294043E-02
  0.319499999      -8.77747387E-02
  0.319999993      -8.80814046E-02
  0.320499986      -8.83490071E-02
  0.321000010      -8.85771886E-02
  0.321500003      -8.87656137E-02
  0.321999997      -8.89139697E-02
  0.322499990      -8.90219957E-02
  0.323000014      -8.90894309E-02
  0.323500007      -8.91160518E-02
  0.324000001      -8.91016647E-02
  0.324499995      -8.90461206E-02
  0.324999988      -8.89492780E-02
  0.325500011      -8.88110250E-02
  0.326000005      -8.86313021E-02
  0.326499999      -8.84100646E-02
  0.326999992      -8.81472975E-02
  0.327499986      -8.78430083E-02
  0.328000009      -8.74972641E-02
  0.328500003      -8.71101320E-02
  0.328999996      -8.66817236E-02
  0.329499990      -8.62121806E-02
  0.330000013      -8.57016817E-02
  0.330500007      -8.51504207E-02
  0.331000000      -8.45586434E-02
  0.331499994      -8.39265957E-02
  0.331999987      -8.32545832E-02
  0.332500011      -8.25429186E-02
  0.333000004      -8.17919672E-02
  0.333499998      -8.10021088E-02
  0.333999991      -8.01737607E-02
  0.334500015      -7.93073624E-02
  0.335000008      -7.84033909E-02
  0.335500002      -7.74623454E-02
  0.335999995      -7.64847547E-02
  0.336499989      -7.54711702E-02
  0.337000012      -7.44221881E-02
  0.337500006      -7.33384117E-02
  0.338000000      -7.22204819E-02
  0.338499993      -7.10690618E-02
  0.338999987      -6.98848516E-02
  0.339500010      -6.86685592E-02
  0.340000004      -6.74209222E-02
  0.340499997      -6.61427081E-02
  0.340999991      -6.48347065E-02
  0.341500014      -6.34977221E-02
  0.342000008      -6.21325895E-02
  0.342500001      -6.07401542E-02
  0.342999995      -5.93212992E-02
  0.343499988      -5.78769110E-02
  0.344000012      -5.64079024E-02
  0.344500005      -5.49152009E-02
  0.344999999      -5.33997566E-02
  0.345499992      -5.18625267E-02
  0.345999986      -5.03044873E-02
  0.346500009      -4.87266332E-02
  0.347000003      -4.71299700E-02
  0.347499996      -4.55155149E-02
  0.347999990      -4.38842960E-02
  0.348500013      -4.22373526E-02
  0.349000007      -4.05757353E-02
  0.349500000      -3.89004983E-02
  0.349999994      -3.72127146E-02
  0.350499988      -3.55134457E-02
  0.351000011      -3.38037834E-02
  0.351500005      -3.20848040E-02
  0.351999998      -3.03575993E-02
  0.352499992      -2.86232606E-02
  0.352999985      -2.68828850E-02
  0.353500009      -2.51375642E-02
  0.354000002      -2.33883988E-02
  0.354499996      -2.16364823E-02
  0.354999989      -1.98829137E-02
  0.355500013      -1.81287844E-02
  0.356000006      -1.63751841E-02
  0.356500000      -1.46231977E-02
  0.356999993      -1.28739057E-02
  0.357499987      -1.11283818E-02
  0.358000010      -9.38769057E-03
  0.358500004      -7.65289087E-03
  0.358999997      -5.92503091E-03
  0.359499991      -4.20514774E-03
  0.360000014      -2.49426928E-03
  0.360500008      -7.93409010E-04
  0.361000001       8.96430633E-04
  0.361499995       2.57426407E-03
  0.361999989       4.23911586E-03
  0.362500012       5.89002902E-03
  0.363000005       7.52606336E-03
  0.363499999       9.14629269E-03
  0.363999993       1.07498094E-02
  0.364499986       1.23357251E-02
  0.365000010       1.39031708E-02
  0.365500003       1.54512897E-02
  0.365999997       1.69792529E-02
  0.366499990       1.84862521E-02
  0.367000014       1.99714899E-02
  0.367500007       2.14342047E-02
  0.368000001       2.28736419E-02
  0.368499994       2.42890809E-02
  0.368999988       2.56798174E-02
  0.369500011       2.70451754E-02
  0.370000005       2.83845011E-02
  0.370499998       2.96971649E-02
  0.370999992       3.09825614E-02
  0.371499985       3.22401151E-02
  0.372000009       3.34692746E-02
  0.372500002       3.46695110E-02
  0.372999996       3.58403288E-02
  0.373499990       3.69812548E-02
  0.374000013       3.80918458E-02
  0.374500006       3.91716808E-02
  0.375000000       4.02203798E-02
  0.375499994       4.12375703E-02
  0.375999987       4.22229283E-02
  0.376500010       4.31761444E-02
  0.377000004       4.40969393E-02
  0.377499998       4.49850634E-02
  0.377999991       4.58402932E-02
  0.378500015       4.66624275E-02
  0.379000008       4.74512987E-02
  0.379500002       4.82067764E-02
  0.379999995       4.89287302E-02
  0.380499989       4.96170819E-02
  0.381000012       5.02717644E-02
  0.381500006       5.08927442E-02
  0.381999999       5.14800102E-02
  0.382499993       5.20335808E-02
  0.382999986       5.25534935E-02
  0.383500010       5.30398227E-02
  0.384000003       5.34926616E-02
  0.384499997       5.39121181E-02
  0.384999990       5.42983450E-02
  0.385500014       5.46515062E-02
  0.386000007       5.49717806E-02
  0.386500001       5.52593991E-02
  0.386999995       5.55145927E-02
  0.387499988       5.57376221E-02
  0.388000011       5.59287705E-02
  0.388500005       5.60883433E-02
  0.388999999       5.62166572E-02
  0.389499992       5.63140623E-02
  0.389999986       5.63809313E-02
  0.390500009       5.64176477E-02
  0.391000003       5.64246140E-02
  0.391499996       5.64022511E-02
  0.391999990       5.63509949E-02
  0.392500013       5.62713072E-02
  0.393000007       5.61636500E-02
  0.393500000       5.60285263E-02
  0.393999994       5.58664314E-02
  0.394499987       5.56778759E-02
  0.395000011       5.54633997E-02
  0.395500004       5.52235320E-02
  0.395999998       5.49588390E-02
  0.396499991       5.46698794E-02
  0.397000015       5.43572307E-02
  0.397500008       5.40214851E-02
  0.398000002       5.36632352E-02
  0.398499995       5.32830879E-02
  0.398999989       5.28816581E-02
  0.399500012       5.24595715E-02
  0.400000006       5.20174541E-02
  0.400500000       5.15559465E-02
  0.400999993       5.10756932E-02
  0.401499987       5.05773388E-02
  0.402000010       5.00615388E-02
  0.402500004       4.95289452E-02
  0.402999997       4.89802249E-02
  0.403499991       4.84160334E-02
  0.404000014       4.78370339E-02
  0.404500008       4.72438969E-02
  0.405000001       4.66372818E-02
  0.405499995       4.60178554E-02
  0.405999988       4.53862809E-02
  0.406500012       4.47432250E-02
  0.407000005       4.40893359E-02
  0.407499999       4.34252806E-02
  0.407999992       4.27517109E-02
  0.408499986       4.20692787E-02
  0.409000009       4.13786322E-02
  0.409500003       4.06804085E-02
  0.409999996       3.99752483E-02
  0.410499990       3.92637812E-02
  0.411000013       3.85466330E-02
  0.411500007       3.78244296E-02
  0.412000000       3.70977782E-02
  0.412499994       3.63672897E-02
  0.412999988       3.56335640E-02
  0.413500011       3.48971859E-02
  0.414000005       3.41587439E-02
  0.414499998       3.34188119E-02
  0.414999992       3.26779559E-02
  0.415499985       3.19367312E-02
  0.416000009       3.11956853E-02
  0.416500002       3.04553509E-02
  0.416999996       2.97162533E-02
  0.417499989       2.89789084E-02
  0.418000013       2.82438155E-02
  0.418500006       2.75114700E-02
  0.419000000       2.67823450E-02
  0.419499993       2.60569137E-02
  0.419999987       2.53356248E-02
  0.420500010       2.46189237E-02
  0.421000004       2.39072386E-02
  0.421499997       2.32009850E-02
  0.421999991       2.25005671E-02
  0.422500014       2.18063779E-02
  0.423000008       2.11187936E-02
  0.423500001       2.04381812E-02
  0.423999995       1.97648909E-02
  0.424499989       1.90992653E-02
  0.425000012       1.84416287E-02
  0.425500005       1.77922975E-02
  0.425999999       1.71515718E-02
  0.426499993       1.65197384E-02
  0.426999986       1.58970784E-02
  0.427500010       1.52838510E-02
  0.428000003       1.46803055E-02