   0.00000000      -1.32465830E-05
   5.00000024E-04  -1.17684349E-05
   1.00000005E-03  -8.02088744E-06
   1.50000001E-03  -2.38497660E-06
   2.00000009E-03   4.52238964E-06
   2.49999994E-03   1.19038168E-05
   3.00000003E-03   1.88551930E-05
   3.50000011E-03   2.44516996E-05
   4.00000019E-03   2.78387779E-05
   4.49999981E-03   2.83202498E-05
   4.99999989E-03   2.54358565E-05
   5.49999997E-03   1.90211122E-05
   6.00000005E-03   9.24379674E-06
   6.50000013E-03  -3.38696850E-06
   7.00000022E-03  -1.80409152E-05
   7.49999983E-03  -3.36156554E-05
   8.00000038E-03  -4.88116457E-05
   8.50000046E-03  -6.22282168E-05
   8.99999961E-03  -7.24737038E-05
   9.49999969E-03  -7.82815187E-05
   9.99999978E-03  -7.86232631E-05
   1.04999999E-02  -7.28094310E-05
   1.09999999E-02  -6.05698078E-05
   1.15000000E-02  -4.21057302E-05
   1.20000001E-02  -1.81092582E-05
   1.25000002E-02   1.02539843E-05
   1.30000003E-02   4.13986709E-05
   1.35000004E-02   7.34080822E-05
   1.40000004E-02   1.04151768E-04
   1.44999996E-02   1.31425288E-04
   1.49999997E-02   1.53103072E-04
   1.54999997E-02   1.67293329E-04
   1.60000008E-02   1.72484230E-04
   1.64999999E-02   1.67670820E-04
   1.70000009E-02   1.52452048E-04
   1.75000001E-02   1.27090534E-04
   1.79999992E-02   9.25289496E-05
   1.85000002E-02   5.03605042E-05
   1.89999994E-02   2.75334946E-06
   1.95000004E-02  -4.76669557E-05
   1.99999996E-02  -9.79709221E-05
   2.05000006E-02  -1.45104757E-04
   2.09999997E-02  -1.86085163E-04
   2.15000007E-02  -2.18196466E-04
   2.19999999E-02  -2.39176719E-04
   2.25000009E-02  -2.47379561E-04
   2.30000000E-02  -2.41901216E-04
   2.34999992E-02  -2.22661896E-04
   2.40000002E-02  -1.90435792E-04
   2.44999994E-02  -1.46825536E-04
   2.50000004E-02  -9.41822800E-05
   2.54999995E-02  -3.54744625E-05
   2.60000005E-02   2.58871478E-05
   2.64999997E-02   8.62563393E-05
   2.70000007E-02   1.41979908E-04
   2.74999999E-02   1.89630460E-04
   2.80000009E-02   2.26229284E-04
   2.85000000E-02   2.49446341E-04
   2.89999992E-02   2.57760054E-04
   2.95000002E-02   2.50568351E-04
   2.99999993E-02   2.28243793E-04
   3.05000003E-02   1.92124382E-04
   3.09999995E-02   1.44443678E-04
   3.15000005E-02   8.82001477E-05
   3.20000015E-02   2.69774537E-05
   3.24999988E-02  -3.52776733E-05
   3.29999998E-02  -9.45025677E-05
   3.35000008E-02  -1.46778591E-04
   3.40000018E-02  -1.88583304E-04
   3.44999991E-02  -2.17020963E-04
   3.50000001E-02  -2.30015998E-04
   3.55000012E-02  -2.26457385E-04
   3.59999985E-02  -2.06278550E-04
   3.64999995E-02  -1.70476385E-04
   3.70000005E-02  -1.21058561E-04
   3.75000015E-02  -6.09284580E-05
   3.79999988E-02   6.29341230E-06
   3.84999998E-02   7.64880169E-05
   3.90000008E-02   1.45298211E-04
   3.95000018E-02   2.08400466E-04
   3.99999991E-02   2.61779904E-04
   4.05000001E-02   3.01989930E-04
   4.10000011E-02   3.26371868E-04
   4.14999984E-02   3.33233533E-04
   4.19999994E-02   3.21963482E-04
   4.25000004E-02   2.93079676E-04
   4.30000015E-02   2.48205994E-04
   4.34999987E-02   1.89981729E-04
   4.39999998E-02   1.21903911E-04
   4.45000008E-02   4.81175121E-05
   4.50000018E-02  -2.68326330E-05
   4.54999991E-02  -9.82864367E-05
   4.60000001E-02  -1.61749078E-04
   4.65000011E-02  -2.13163177E-04
   4.69999984E-02  -2.49164994E-04
   4.74999994E-02  -2.67284922E-04
   4.80000004E-02  -2.66097893E-04
   4.85000014E-02  -2.45314732E-04
   4.89999987E-02  -2.05791555E-04
   4.94999997E-02  -1.49481770E-04
   5.00000007E-02  -7.93149375E-05
   5.05000018E-02   9.92118544E-07
   5.09999990E-02   8.71445955E-05
   5.15000001E-02   1.74545537E-04
   5.20000011E-02   2.58566812E-04
   5.24999984E-02   3.34821030E-04
   5.29999994E-02   3.99430894E-04
   5.35000004E-02   4.49241721E-04
   5.40000014E-02   4.82012780E-04
   5.44999987E-02   4.96531196E-04
   5.49999997E-02   4.92676860E-04
   5.55000007E-02   4.71406616E-04
   5.60000017E-02   4.34694608E-04
   5.64999990E-02   3.85393476E-04
   5.70000000E-02   3.27055168E-04
   5.75000010E-02   2.63710332E-04
   5.79999983E-02   1.99629081E-04
   5.84999993E-02   1.39080832E-04
   5.90000004E-02   8.60528962E-05
   5.95000014E-02   4.40814947E-05
   5.99999987E-02   1.60403852E-05
   6.04999997E-02   3.98180146E-06
   6.10000007E-02   9.07671529E-06
   6.15000017E-02   3.15623220E-05
   6.19999990E-02   7.07625295E-05
   6.25000000E-02   1.25202918E-04
   6.30000010E-02   1.92683452E-04
   6.35000020E-02   2.70455115E-04
   6.40000030E-02   3.55432276E-04
   6.44999966E-02   4.44353005E-04
   6.49999976E-02   5.33987419E-04
   6.54999986E-02   6.21369807E-04
   6.59999996E-02   7.03880214E-04
   6.65000007E-02   7.79477239E-04
   6.70000017E-02   8.46679613E-04
   6.75000027E-02   9.04726563E-04
   6.80000037E-02   9.53492825E-04
   6.84999973E-02   9.93519090E-04
   6.89999983E-02   1.02590094E-03
   6.94999993E-02   1.05222291E-03
   7.00000003E-02   1.07439002E-03
   7.05000013E-02   1.09451776E-03
   7.10000023E-02   1.11480756E-03
   7.15000033E-02   1.13737094E-03
   7.19999969E-02   1.16417487E-03
   7.24999979E-02   1.19687605E-03
   7.29999989E-02   1.23685889E-03
   7.34999999E-02   1.28509616E-03
   7.40000010E-02   1.34212675E-03
   7.45000020E-02   1.40819862E-03
   7.50000030E-02   1.48323306E-03
   7.54999965E-02   1.56690145E-03
   7.59999976E-02   1.65868807E-03
   7.64999986E-02   1.75795972E-03
   7.69999996E-02   1.86410686E-03
   7.75000006E-02   1.97659852E-03
   7.80000016E-02   2.09493237E-03
   7.85000026E-02   2.21886043E-03
   7.90000036E-02   2.34834501E-03
   7.94999972E-02   2.48339493E-03
   7.99999982E-02   2.62431172E-03
   8.04999992E-02   2.77152564E-03
   8.10000002E-02   2.92551494E-03
   8.15000013E-02   3.08688381E-03
   8.20000023E-02   3.25626414E-03
   8.25000033E-02   3.43405968E-03
   8.29999968E-02   3.62079125E-03
   8.34999979E-02   3.81687679E-03
   8.39999989E-02   4.02250746E-03
   8.44999999E-02   4.23780875E-03
   8.50000009E-02   4.46283631E-03
   8.55000019E-02   4.69759526E-03
   8.60000029E-02   4.94194636E-03
   8.64999965E-02   5.19609591E-03
   8.69999975E-02   5.46000758E-03
   8.74999985E-02   5.73400315E-03
   8.79999995E-02   6.01856038E-03
   8.85000005E-02   6.31432422E-03
   8.90000015E-02   6.62217988E-03
   8.95000026E-02   6.94309501E-03
   9.00000036E-02   7.27869384E-03
   9.04999971E-02   7.63011957E-03
   9.09999982E-02   7.99925718E-03
   9.14999992E-02   8.38741660E-03
   9.20000002E-02   8.79628491E-03
   9.25000012E-02   9.22740903E-03
   9.30000022E-02   9.68193822E-03
   9.35000032E-02   1.01610413E-02
   9.39999968E-02   1.06657585E-02
   9.44999978E-02   1.11964177E-02
   9.49999988E-02   1.17535423E-02
   9.54999998E-02   1.23372441E-02
   9.60000008E-02   1.29476991E-02
   9.65000018E-02   1.35848979E-02
   9.70000029E-02   1.42484261E-02
   9.74999964E-02   1.49385892E-02
   9.79999974E-02   1.56557225E-02
   9.84999985E-02   1.64004602E-02
   9.89999995E-02   1.71733908E-02
   9.95000005E-02   1.79759767E-02
  0.100000001       1.88103095E-02
  0.100500003       1.96779892E-02
  0.101000004       2.05819383E-02
  0.101499997       2.15253234E-02
  0.101999998       2.25110631E-02
  0.102499999       2.35424582E-02
  0.103000000       2.46227384E-02
  0.103500001       2.57550403E-02
  0.104000002       2.69429926E-02
  0.104500003       2.81883422E-02
  0.104999997       2.94932891E-02
  0.105499998       3.08601186E-02
  0.105999999       3.22897248E-02
  0.106500000       3.37827168E-02
  0.107000001       3.53397653E-02
  0.107500002       3.69611606E-02
  0.108000003       3.86457480E-02
  0.108499996       4.03950289E-02
  0.108999997       4.22077738E-02
  0.109499998       4.40853797E-02
  0.109999999       4.60282415E-02
  0.110500000       4.80375141E-02
  0.111000001       5.01153506E-02
  0.111500002       5.22667393E-02
  0.112000003       5.44951335E-02
  0.112499997       5.68034239E-02
  0.112999998       5.91992922E-02
  0.113499999       6.16882145E-02
  0.114000000       6.42772242E-02
  0.114500001       6.69733584E-02
  0.115000002       6.97834492E-02
  0.115500003       7.27158040E-02
  0.115999997       7.57752806E-02
  0.116499998       7.89684728E-02
  0.116999999       8.23006332E-02
  0.117500000       8.57765526E-02
  0.118000001       8.93996879E-02
  0.118500002       9.31715369E-02
  0.119000003       9.70953032E-02
  0.119499996      0.101171821    
  0.119999997      0.105401345    
  0.120499998      0.109784648    
  0.120999999      0.114321508    
  0.121500000      0.119015008    
  0.122000001      0.123861730    
  0.122500002      0.128867656    
  0.123000003      0.134033561    
  0.123499997      0.139364362    
  0.123999998      0.144864306    
  0.124499999      0.150543258    
  0.125000000      0.156406224    
  0.125499994      0.162465438    
  0.126000002      0.168730259    
  0.126499996      0.175211579    
  0.127000004      0.181922644    
  0.127499998      0.188873768    
  0.128000006      0.196080148    
  0.128500000      0.203543648    
  0.128999993      0.211292014    
  0.129500002      0.219323769    
  0.129999995      0.227653295    
  0.130500004      0.236279011    
  0.130999997      0.245215088    
  0.131500006      0.254462928    
  0.131999999      0.264034629    
  0.132499993      0.273926258    
  0.133000001      0.284140855    
  0.133499995      0.294678241    
  0.134000003      0.305546790    
  0.134499997      0.316747159    
  0.135000005      0.328279555    
  0.135499999      0.340159178    
  0.136000007      0.352379054    
  0.136500001      0.364959478    
  0.136999995      0.377900988    
  0.137500003      0.391215265    
  0.137999997      0.404924065    
  0.138500005      0.419027001    
  0.138999999      0.433549792    
  0.139500007      0.448506474    
  0.140000001      0.463920474    
  0.140499994      0.479790777    
  0.141000003      0.496155769    
  0.141499996      0.513006032    
  0.142000005      0.530370891    
  0.142499998      0.548273087    
  0.143000007      0.566699088    
  0.143500000      0.585683942    
  0.143999994      0.605224133    
  0.144500002      0.625341833    
  0.144999996      0.646030068    
  0.145500004      0.667298317    
  0.145999998      0.689158440    
  0.146500006      0.711605787    
  0.147000000      0.734655023    
  0.147499993      0.758297265    
  0.148000002      0.782558978    
  0.148499995      0.807428002    
  0.149000004      0.832917869    
  0.149499997      0.859044552    
  0.150000006      0.885818422    
  0.150500000      0.913241446    
  0.150999993      0.941330671    
  0.151500002      0.970096469    
  0.151999995      0.999559641    
  0.152500004       1.02971792    
  0.152999997       1.06061494    
  0.153500006       1.09225357    
  0.153999999       1.12465012    
  0.154499993       1.15781701    
  0.155000001       1.19175351    
  0.155499995       1.22651160    
  0.156000003       1.26206982    
  0.156499997       1.29843974    
  0.157000005       1.33564222    
  0.157499999       1.37367344    
  0.158000007       1.41255414    
  0.158500001       1.45227718    
  0.158999994       1.49287069    
  0.159500003       1.53430450    
  0.159999996       1.57658052    
  0.160500005       1.61972725    
  0.160999998       1.66372037    
  0.161500007       1.70857322    
  0.162000000       1.75428462    
  0.162499994       1.80084801    
  0.163000003       1.84829903    
  0.163499996       1.89656603    
  0.164000005       1.94570470    
  0.164499998       1.99572384    
  0.165000007       2.04659724    
  0.165500000       2.09837294    
  0.165999994       2.15098476    
  0.166500002       2.20447206    
  0.166999996       2.25883126    
  0.167500004       2.31411123    
  0.167999998       2.37022662    
  0.168500006       2.42719126    
  0.169000000       2.48509049    
  0.169499993       2.54383445    
  0.170000002       2.60340047    
  0.170499995       2.66385388    
  0.171000004       2.72509766    
  0.171499997       2.78719234    
  0.172000006       2.85001540    
  0.172499999       2.91369009    
  0.172999993       2.97811055    
  0.173500001       3.04321384    
  0.173999995       3.10910296    
  0.174500003       3.17568135    
  0.174999997       3.24291587    
  0.175500005       3.31077218    
  0.175999999       3.37921143    
  0.176499993       3.44830847    
  0.177000001       3.51791787    
  0.177499995       3.58804393    
  0.178000003       3.65870404    
  0.178499997       3.72978616    
  0.179000005       3.80138516    
  0.179499999       3.87330699    
  0.180000007       3.94560432    
  0.180500001       4.01827478    
  0.180999994       4.09124279    
  0.181500003       4.16442728    
  0.181999996       4.23783398    
  0.182500005       4.31138229    
  0.182999998       4.38505602    
  0.183500007       4.45874023    
  0.184000000       4.53244877    
  0.184499994       4.60604000    
  0.185000002       4.67951059    
  0.185499996       4.75278616    
  0.186000004       4.82574511    
  0.186499998       4.89844894    
  0.187000006       4.97069597    
  0.187500000       5.04248857    
  0.187999994       5.11361837    
  0.188500002       5.18421888    
  0.188999996       5.25395632    
  0.189500004       5.32290983    
  0.189999998       5.39103842    
  0.190500006       5.45806789    
  0.191000000       5.52396774    
  0.191499993       5.58868790    
  0.192000002       5.65225744    
  0.192499995       5.71440935    
  0.193000004       5.77509880    
  0.193499997       5.83426237    
  0.194000006       5.89176941    
  0.194499999       5.94777632    
  0.194999993       6.00184822    
  0.195500001       6.05386734    
  0.195999995       6.10396385    
  0.196500003       6.15180588    
  0.196999997       6.19754648    
  0.197500005       6.24078989    
  0.197999999       6.28147745    
  0.198500007       6.31952333    
  0.199000001       6.35484028    
  0.199499995       6.38709593    
  0.200000003       6.41644001    
  0.200499997       6.44235849    
  0.201000005       6.46490812    
  0.201499999       6.48407698    
  0.202000007       6.49925947    
  0.202500001       6.51094437    
  0.202999994       6.51848221    
  0.203500003       6.52168894    
  0.203999996       6.52071381    
  0.204500005       6.51507139    
  0.204999998       6.50497246    
  0.205500007       6.49011040    
  0.206000000       6.47025728    
  0.206499994       6.44545412    
  0.207000002       6.41570759    
  0.207499996       6.38053989    
  0.208000004       6.34041119    
  0.208499998       6.29464722    
  0.209000006       6.24313831    
  0.209500000       6.18604851    
  0.209999993       6.12290621    
  0.210500002       6.05383921    
  0.210999995       5.97859621    
  0.211500004       5.89668512    
  0.211999997       5.80827284    
  0.212500006       5.71340179    
  0.213000000       5.61132002    
  0.213499993       5.50249672    
  0.214000002       5.38583994    
  0.214499995       5.26192522    
  0.215000004       5.13033438    
  0.215499997       4.99099112    
  0.216000006       4.84341621    
  0.216499999       4.68780470    
  0.216999993       4.52398729    
  0.217500001       4.35169363    
  0.217999995       4.17048645    
  0.218500003       3.98074126    
  0.218999997       3.78243327    
  0.219500005       3.57538891    
  0.219999999       3.35966516    
  0.220500007       3.13480568    
  0.221000001       2.90115023    
  0.221499994       2.65856242    
  0.222000003       2.40706325    
  0.222499996       2.14694858    
  0.223000005       1.87700236    
  0.223499998       1.59829664    
  0.224000007       1.30962873    
  0.224500000       1.01179457    
  0.224999994      0.703793466    
  0.225500003      0.386084825    
  0.225999996       5.92959300E-02
  0.226500005     -0.277775079    
  0.226999998     -0.624665260    
  0.227500007     -0.981951237    
  0.228000000      -1.34885204    
  0.228499994      -1.72536910    
  0.229000002      -2.11229610    
  0.229499996      -2.50900364    
  0.230000004      -2.91537189    
  0.230499998      -3.33176613    
  0.231000006      -3.75738192    
  0.231500000      -4.19275618    
  0.231999993      -4.63748455    
  0.232500002      -5.09195518    
  0.232999995      -5.55518007    
  0.233500004      -6.02828979    
  0.233999997      -6.50964594    
  0.234500006      -7.00090265    
  0.234999999      -7.49957466    
  0.235499993      -8.00791359    
  0.236000001      -8.52413750    
  0.236499995      -9.04868031    
  0.237000003      -9.58159542    
  0.237499997      -10.1219931    
  0.238000005      -10.6701727    
  0.238499999      -11.2255192    
  0.238999993      -11.7882013    
  0.239500001      -12.3575640    
  0.239999995      -12.9336462    
  0.240500003      -13.5154324    
  0.240999997      -14.1035576    
  0.241500005      -14.6978865    
  0.241999999      -15.2972956    
  0.242500007      -15.9015055    
  0.243000001      -16.5109081    
  0.243499994      -17.1243629    
  0.244000003      -17.7425194    
  0.244499996      -18.3633213    
  0.245000005      -18.9878387    
  0.245499998      -19.6142349    
  0.246000007      -20.2439861    
  0.246500000      -20.8753471    
  0.246999994      -21.5073528    
  0.247500002      -22.1412163    
  0.247999996      -22.7751904    
  0.248500004      -23.4086895    
  0.248999998      -24.0423183    
  0.249500006      -24.6746330    
  0.250000000      -25.3051567    
  0.250499994      -25.9329109    
  0.250999987      -26.5588074    
  0.251500010      -27.1798725    
  0.252000004      -27.7970104    
  0.252499998      -28.4093151    
  0.252999991      -29.0161514    
  0.253500015      -29.6158829    
  0.254000008      -30.2091522    
  0.254500002      -30.7945347    
  0.254999995      -31.3722286    
  0.255499989      -31.9411144    
  0.256000012      -32.4997101    
  0.256500006      -33.0488968    
  0.256999999      -33.5876617    
  0.257499993      -34.1151657    
  0.257999986      -34.6307449    
  0.258500010      -35.1343727    
  0.259000003      -35.6240921    
  0.259499997      -36.1005096    
  0.259999990      -36.5628357    
  0.260500014      -37.0099182    
  0.261000007      -37.4411812    
  0.261500001      -37.8562279    
  0.261999995      -38.2541809    
  0.262499988      -38.6343918    
  0.263000011      -38.9954376    
  0.263500005      -39.3369217    
  0.263999999      -39.6579475    
  0.264499992      -39.9577217    
  0.264999986      -40.2356262    
  0.265500009      -40.4905586    
  0.266000003      -40.7219276    
  0.266499996      -40.9291496    
  0.266999990      -41.1109085    
  0.267500013      -41.2673950    
  0.268000007      -41.3975677    
  0.268500000      -41.5002289    
  0.268999994      -41.5752792    
  0.269499987      -41.6230621    
  0.270000011      -41.6421585    
  0.270500004      -41.6325417    
  0.270999998      -41.5935860    
  0.271499991      -41.5254974    
  0.272000015      -41.4268875    
  0.272500008      -41.2984009    
  0.273000002      -41.1390495    
  0.273499995      -40.9487381    
  0.273999989      -40.7272224    
  0.274500012      -40.4736366    
  0.275000006      -40.1881485    
  0.275500000      -39.8697929    
  0.275999993      -39.5182304    
  0.276499987      -39.1330681    
  0.277000010      -38.7136040    
  0.277500004      -38.2600212    
  0.277999997      -37.7714043    
  0.278499991      -37.2473030    
  0.279000014      -36.6878510    
  0.279500008      -36.0921669    
  0.280000001      -35.4606247    
  0.280499995      -34.7929420    
  0.280999988      -34.0892105    
  0.281500012      -33.3490486    
  0.282000005      -32.5730934    
  0.282499999      -31.7613335    
  0.282999992      -30.9141541    
  0.283499986      -30.0319920    
  0.284000009      -29.1148090    
  0.284500003      -28.1627979    
  0.284999996      -27.1771202    
  0.285499990      -26.1576729    
  0.286000013      -25.1048775    
  0.286500007      -24.0193729    
  0.287000000      -22.9009113    
  0.287499994      -21.7509937    
  0.287999988      -20.5692768    
  0.288500011      -19.3566551    
  0.289000005      -18.1134949    
  0.289499998      -16.8397942    
  0.289999992      -15.5360098    
  0.290499985      -14.2024879    
  0.291000009      -12.8397932    
  0.291500002      -11.4498568    
  0.291999996      -10.0309429    
  0.292499989      -8.58571053    
  0.293000013      -7.11474991    
  0.293500006      -5.61875248    
  0.294000000      -4.09808922    
  0.294499993      -2.55482674    
  0.294999987     -0.989521027    
  0.295500010      0.596971035    
  0.296000004       2.20315981    
  0.296499997       3.82769775    
  0.296999991       5.46872425    
  0.297500014       7.12543011    
  0.298000008       8.79730892    
  0.298500001       10.4819260    
  0.298999995       12.1784363    
  0.299499989       13.8850861    
  0.300000012       15.6017551    
  0.300500005       17.3247166    
  0.300999999       19.0558910    
  0.301499993       20.7927189    
  0.301999986       22.5327930    
  0.302500010       24.2763824    
  0.303000003       26.0210457    
  0.303499997       27.7647495    
  0.303999990       29.5075779    
  0.304500014       31.2482414    
  0.305000007       32.9850578    
  0.305500001       34.7165108    
  0.305999994       36.4415283    
  0.306499988       38.1568871    
  0.307000011       39.8619995    
  0.307500005       41.5543785    
  0.307999998       43.2332840    
  0.308499992       44.8977585    
  0.308999985       46.5457001    
  0.309500009       48.1735802    
  0.310000002       49.7821121    
  0.310499996       51.3668823    
  0.310999990       52.9280472    
  0.311500013       54.4650536    
  0.312000006       55.9748688    
  0.312500000       57.4584045    
  0.312999994       58.9116478    
  0.313499987       60.3335724    
  0.314000010       61.7236443    
  0.314500004       63.0803986    
  0.314999998       64.4032516    
  0.315499991       65.6894531    
  0.316000015       66.9394608    
  0.316500008       68.1504517    
  0.317000002       69.3216248    
  0.317499995       70.4523468    
  0.317999989       71.5401917    
  0.318500012       72.5823669    
  0.319000006       73.5811005    
  0.319499999       74.5343475    
  0.319999993       75.4387283    
  0.320499986       76.2931366    
  0.321000010       77.0979614    
  0.321500003       77.8509521    
  0.321999997       78.5522461    
  0.322499990       79.1981354    
  0.323000014       79.7903900    
  0.323500007       80.3248749    
  0.324000001       80.8034897    
  0.324499995       81.2255707    
  0.324999988       81.5883942    
  0.325500011       81.8958359    
  0.326000005       82.1438217    
  0.326499999       82.3316345    
  0.326999992       82.4621735    
  0.327499986       82.5331573    
  0.328000009       82.5469666    
  0.328500003       82.5003204    
  0.328999996       82.3946457    
  0.329499990       82.2291336    
  0.330000013       82.0068741    
  0.330500007       81.7217941    
  0.331000000       81.3789215    
  0.331499994       80.9757233    
  0.331999987       80.5141830    
  0.332500011       79.9921036    
  0.333000004       79.4098511    
  0.333499998       78.7676620    
  0.333999991       78.0651703    
  0.334500015       77.3020782    
  0.335000008       76.4796295    
  0.335500002       75.5970688    
  0.335999995       74.6563339    
  0.336499989       73.6575928    
  0.337000012       72.5988770    
  0.337500006       71.4860535    
  0.338000000       70.3173981    
  0.338499993       69.0951157    
  0.338999987       67.8194504    
  0.339500010       66.4901962    
  0.340000004       65.1129684    
  0.340499997       63.6855011    
  0.340999991       62.2113800    
  0.341500014       60.6906509    
  0.342000008       59.1262093    
  0.342500001       57.5172272    
  0.342999995       55.8674583    
  0.343499988       54.1770172    
  0.344000012       52.4471092    
  0.344500005       50.6805878    
  0.344999999       48.8760071    
  0.345499992       47.0356750    
  0.345999986       45.1610794    
  0.346500009       43.2539062    
  0.347000003       41.3160172    
  0.347499996       39.3459816    
  0.347999990       37.3469963    
  0.348500013       35.3209610    
  0.349000007       33.2693825    
  0.349500000       31.1940784    
  0.349999994       29.0967979    
  0.350499988       26.9787025    
  0.351000011       24.8434772    
  0.351500005       22.6918468    
  0.351999998       20.5269279    
  0.352499992       18.3495045    
  0.352999985       16.1623745    
  0.353500009       13.9690504    
  0.354000002       11.7698927    
  0.354499996       9.56836510    
  0.354999989       7.36576366    
  0.355500013       5.16453314    
  0.356000006       2.96530652    
  0.356500000      0.772166669    
  0.356999993      -1.41487443    
  0.357499987      -3.59277773    
  0.358000010      -5.76078463    
  0.358500004      -7.91707182    
  0.358999997      -10.0601320    
  0.359499991      -12.1878262    
  0.360000014      -14.2993259    
  0.360500008      -16.3925591    
  0.361000001      -18.4657059    
  0.361499995      -20.5178585    
  0.361999989      -22.5465355    
  0.362500012      -24.5507832    
  0.363000005      -26.5283070    
  0.363499999      -28.4781609    
  0.363999993      -30.3981743    
  0.364499986      -32.2874489    
  0.365000010      -34.1438179    
  0.365500003      -35.9661865    
  0.365999997      -37.7528343    
  0.366499990      -39.5021858    
  0.367000014      -41.2129822    
  0.367500007      -42.8834839    
  0.368000001      -44.5130882    
  0.368499994      -46.1000366    
  0.368999988      -47.6435471    
  0.369500011      -49.1419868    
  0.370000005      -50.5954247    
  0.370499998      -52.0003090    
  0.370999992      -53.3580132    
  0.371499985      -54.6661415    
  0.372000009      -55.9260178    
  0.372500002      -57.1349144    
  0.372999996      -58.2930756    
  0.373499990      -59.3991547    
  0.374000013      -60.4524384    
  0.374500006      -61.4529648    
  0.375000000      -62.3994064    
  0.375499994      -63.2927742    
  0.375999987      -64.1314621    
  0.376500010      -64.9159546    
  0.377000004      -65.6453857    
  0.377499998      -66.3199615    
  0.377999991      -66.9395294    
  0.378500015      -67.5051956    
  0.379000008      -68.0155106    
  0.379500002      -68.4716644    
  0.379999995      -68.8740768    
  0.380499989      -69.2215805    
  0.381000012      -69.5148544    
  0.381500006      -69.7556686    
  0.381999999      -69.9432068    
  0.382499993      -70.0790405    
  0.382999986      -70.1620407    
  0.383500010      -70.1942368    
  0.384000003      -70.1722336    
  0.384499997      -70.0994034    
  0.384999990      -69.9747314    
  0.385500014      -69.7988434    
  0.386000007      -69.5718079    
  0.386500001      -69.2950668    
  0.386999995      -68.9679947    
  0.387499988      -68.5907440    
  0.388000011      -68.1654205    
  0.388500005      -67.6925812    
  0.388999999      -67.1723328    
  0.389499992      -66.6054077    
  0.389999986      -65.9949493    
  0.390500009      -65.3409882    
  0.391000003      -64.6441193    
  0.391499996      -63.9062309    
  0.391999990      -63.1308441    
  0.392500013      -62.3161812    
  0.393000007      -61.4651604    
  0.393500000      -60.5803032    
  0.393999994      -59.6622314    
  0.394499987      -58.7103195    
  0.395000011      -57.7279358    
  0.395500004      -56.7168465    
  0.395999998      -55.6776161    
  0.396499991      -54.6107597    
  0.397000015      -53.5161591    
  0.397500008      -52.3972321    
  0.398000002      -51.2531700    
  0.398499995      -50.0854607    
  0.398999989      -48.8941116    
  0.399500012      -47.6812172    
  0.400000006      -46.4468422    
  0.400500000      -45.1925468    
  0.400999993      -43.9196777    
  0.401499987      -42.6281319    
  0.402000010      -41.3204460    
  0.402500004      -39.9974556    
  0.402999997      -38.6626282    
  0.403499991      -37.3153458    
  0.404000014      -35.9578133    
  0.404500008      -34.5930443    
  0.405000001      -33.2202988    
  0.405499995      -31.8432140    
  0.405999988      -30.4637222    
  0.406500012      -29.0832672    
  0.407000005      -27.7011032    
  0.407499999      -26.3215408    
  0.407999992      -24.9428692    
  0.408499986      -23.5682087    
  0.409000009      -22.1963501    
  0.409500003      -20.8293724    
  0.409999996      -19.4674473    
  0.410499990      -18.1112080    
  0.411000013      -16.7605629    
  0.411500007      -15.4158211    
  0.412000000      -14.0780687    
  0.412499994      -12.7468166    
  0.412999988      -11.4238348    
  0.413500011      -10.1100283    
  0.414000005      -8.80577755    
  0.414499998      -7.51190472    
  0.414999992      -6.22998285    
  0.415499985      -4.96049213    
  0.416000009      -3.70493937    
  0.416500002      -2.46478820    
  0.416999996      -1.24060130    
  0.417499989      -3.42620313E-02
  0.418000013       1.15357065    
  0.418500006       2.32270122    
  0.419000000       3.46911788    
  0.419499993       4.59643698    
  0.419999987       5.70086050    
  0.420500010       6.78367376    
  0.421000004       7.84367132    
  0.421499997       8.88178253    
  0.421999991       9.89730549    
  0.422500014       10.8909798    
  0.423000008       11.8632584    
  0.423500001       12.8135662    
  0.423999995       13.7430420    
  0.424499989       14.6511183    
  0.425000012       15.5390148    
  0.425500005       16.4057751    
  0.425999999       17.2515469    
  0.426499993       18.0758877    
  0.426999986       18.8786831    
  0.427500010       19.6595116    
  0.428000003       20.4171295    