   0.00000000       0.00000000    
   5.00000024E-04   0.00000000    
   1.00000005E-03   0.00000000    
   1.50000001E-03   0.00000000    
   2.00000009E-03   0.00000000    
   2.49999994E-03   0.00000000    
   3.00000003E-03   0.00000000    
   3.50000011E-03   0.00000000    
   4.00000019E-03   0.00000000    
   4.49999981E-03   0.00000000    
   4.99999989E-03  -6.45257719E-31
   5.49999997E-03  -5.16813558E-30
   6.00000005E-03  -2.69021297E-29
   6.50000013E-03  -9.65821608E-29
   7.00000022E-03  -2.06221308E-28
   7.49999983E-03   1.19230844E-28
   8.00000038E-03   3.72145902E-27
   8.50000046E-03   2.24251385E-26
   8.99999961E-03   9.67526375E-26
   9.49999969E-03   3.48249475E-25
   9.99999978E-03   1.10608110E-24
   1.04999999E-02   3.19044794E-24
   1.09999999E-02   8.50590533E-24
   1.15000000E-02   2.12117361E-23
   1.20000001E-02   4.99100746E-23
   1.25000002E-02   1.11538798E-22
   1.30000003E-02   2.37985325E-22
   1.35000004E-02   4.86833858E-22
   1.40000004E-02   9.58097091E-22
   1.44999996E-02   1.81917212E-21
   1.49999997E-02   3.34045723E-21
   1.54999997E-02   5.94386300E-21
   1.60000008E-02   1.02654980E-20
   1.64999999E-02   1.72318604E-20
   1.70000009E-02   2.81449334E-20
   1.75000001E-02   4.47662296E-20
   1.79999992E-02   6.93807432E-20
   1.85000002E-02   1.04811215E-19
   1.89999994E-02   1.54336974E-19
   1.95000004E-02   2.21457085E-19
   1.99999996E-02   3.09414094E-19
   2.05000006E-02   4.20379960E-19
   2.09999997E-02   5.54192347E-19
   2.15000007E-02   7.06509540E-19
   2.19999999E-02   8.66269963E-19
   2.25000009E-02   1.01237384E-18
   2.30000000E-02   1.10952124E-18
   2.34999992E-02   1.10326403E-18
   2.40000002E-02   9.14485390E-19
   2.44999994E-02   4.33564805E-19
   2.50000004E-02  -4.85095676E-19
   2.54999995E-02  -2.02738349E-18
   2.60000005E-02  -4.42149461E-18
   2.64999997E-02  -7.93614368E-18
   2.70000007E-02  -1.28732150E-17
   2.74999999E-02  -1.95528308E-17
   2.80000009E-02  -2.82886737E-17
   2.85000000E-02  -3.93513673E-17
   2.89999992E-02  -5.29181948E-17
   2.95000002E-02  -6.90074367E-17
   2.99999993E-02  -8.73978918E-17
   3.05000003E-02  -1.07532983E-16
   3.09999995E-02  -1.28414748E-16
   3.15000005E-02  -1.48489243E-16
   3.20000015E-02  -1.65536708E-16
   3.24999988E-02  -1.76569987E-16
   3.29999998E-02  -1.77761696E-16
   3.35000008E-02  -1.64417089E-16
   3.40000018E-02  -1.31003373E-16
   3.44999991E-02  -7.12717212E-17
   3.50000001E-02   2.15204619E-17
   3.55000012E-02   1.54254613E-16
   3.59999985E-02   3.33451275E-16
   3.64999995E-02   5.64614269E-16
   3.70000005E-02   8.51409937E-16
   3.75000015E-02   1.19469603E-15
   3.79999988E-02   1.59142011E-15
   3.84999998E-02   2.03342562E-15
   3.90000008E-02   2.50623772E-15
   3.95000018E-02   2.98790639E-15
   3.99999991E-02   3.44799076E-15
   4.05000001E-02   3.84685476E-15
   4.10000011E-02   4.13536647E-15
   4.14999984E-02   4.25522671E-15
   4.19999994E-02   4.13990572E-15
   4.25000004E-02   3.71665309E-15
   4.30000015E-02   2.90931973E-15
   4.34999987E-02   1.64245649E-15
   4.39999998E-02  -1.53588064E-16
   4.45000008E-02  -2.53636774E-15
   4.50000018E-02  -5.54404706E-15
   4.54999991E-02  -9.18729882E-15
   4.60000001E-02  -1.34407391E-14
   4.65000011E-02  -1.82342527E-14
   4.69999984E-02  -2.34448166E-14
   4.74999994E-02  -2.88894512E-14
   4.80000004E-02  -3.43198302E-14
   4.85000014E-02  -3.94199884E-14
   4.89999987E-02  -4.38068364E-14
   4.94999997E-02  -4.70353262E-14
   5.00000007E-02  -4.86084798E-14
   5.05000018E-02  -4.79929715E-14
   5.09999990E-02  -4.46403914E-14
   5.15000001E-02  -3.80144050E-14
   5.20000011E-02  -2.76243126E-14
   5.24999984E-02  -1.30629557E-14
   5.29999994E-02   5.95150675E-15
   5.35000004E-02   2.95304654E-14
   5.40000014E-02   5.75702883E-14
   5.44999987E-02   8.97088732E-14
   5.49999997E-02   1.25287774E-13
   5.55000007E-02   1.63321844E-13
   5.60000017E-02   2.02480109E-13
   5.64999990E-02   2.41081433E-13
   5.70000000E-02   2.77107222E-13
   5.75000010E-02   3.08235235E-13
   5.79999983E-02   3.31894966E-13
   5.84999993E-02   3.45348262E-13
   5.90000004E-02   3.45791131E-13
   5.95000014E-02   3.30481275E-13
   5.99999987E-02   2.96885699E-13
   6.04999997E-02   2.42841635E-13
   6.10000007E-02   1.66734275E-13
   6.15000017E-02   6.76721320E-14
   6.19999990E-02  -5.43368383E-14
   6.25000000E-02  -1.98226933E-13
   6.30000010E-02  -3.61735842E-13
   6.35000020E-02  -5.41304686E-13
   6.40000030E-02  -7.32022895E-13
   6.44999966E-02  -9.27625923E-13
   6.49999976E-02  -1.12055872E-12
   6.54999986E-02  -1.30211022E-12
   6.59999996E-02  -1.46261996E-12
   6.65000007E-02  -1.59176242E-12
   6.70000017E-02  -1.67890636E-12
   6.75000027E-02  -1.71353524E-12
   6.80000037E-02  -1.68572220E-12
   6.84999973E-02  -1.58666515E-12
   6.89999983E-02  -1.40920999E-12
   6.94999993E-02  -1.14840451E-12
   7.00000003E-02  -8.02019313E-13
   7.05000013E-02  -3.71000431E-13
   7.10000023E-02   1.40127669E-13
   7.15000033E-02   7.22995773E-13
   7.19999969E-02   1.36523518E-12
   7.24999979E-02   2.05048782E-12
   7.29999989E-02   2.75858134E-12
   7.34999999E-02   3.46588968E-12
   7.40000010E-02   4.14588546E-12
   7.45000020E-02   4.76986506E-12
   7.50000030E-02   5.30784704E-12
   7.54999965E-02   5.72962337E-12
   7.59999976E-02   6.00592015E-12
   7.64999986E-02   6.10964014E-12
   7.69999996E-02   6.01711693E-12
   7.75000006E-02   5.70939259E-12
   7.80000016E-02   5.17337085E-12
   7.85000026E-02   4.40286262E-12
   7.90000036E-02   3.39942332E-12
   7.94999972E-02   2.17300787E-12
   7.99999982E-02   7.42266600E-13
   8.04999992E-02  -8.65412505E-13
   8.10000002E-02  -2.61424432E-12
   8.15000013E-02  -4.46067575E-12
   8.20000023E-02  -6.35442653E-12
   8.25000033E-02  -8.23975697E-12
   8.29999968E-02  -1.00571071E-11
   8.34999979E-02  -1.17448716E-11
   8.39999989E-02  -1.32413906E-11
   8.44999999E-02  -1.44870140E-11
   8.50000009E-02  -1.54261326E-11
   8.55000019E-02  -1.60091662E-11
   8.60000029E-02  -1.61943549E-11
   8.64999965E-02  -1.59493148E-11
   8.69999975E-02  -1.52522977E-11
   8.74999985E-02  -1.40930522E-11
   8.79999995E-02  -1.24733253E-11
   8.85000005E-02  -1.04069062E-11
   8.90000015E-02  -7.91934227E-12
   8.95000026E-02  -5.04720267E-12
   9.00000036E-02  -1.83704636E-12
   9.04999971E-02   1.65575312E-12
   9.09999982E-02   5.36850035E-12
   9.14999992E-02   9.23266325E-12
   9.20000002E-02   1.31752092E-11
   9.25000012E-02   1.71200380E-11
   9.30000022E-02   2.09889797E-11
   9.35000032E-02   2.47026670E-11
   9.39999968E-02   2.81809975E-11
   9.44999978E-02   3.13433064E-11
   9.49999988E-02   3.41082614E-11
   9.54999998E-02   3.63935132E-11
   9.60000008E-02   3.81152540E-11
   9.65000018E-02   3.91878092E-11
   9.70000029E-02   3.95234262E-11
   9.74999964E-02   3.90324058E-11
   9.79999974E-02   3.76240254E-11
   9.84999985E-02   3.52080275E-11
   9.89999995E-02   3.16972490E-11
   9.95000005E-02   2.70113359E-11
  0.100000001       2.10817249E-11
  0.100500003       1.38577396E-11
  0.101000004       5.31378544E-12
  0.101499997      -4.54224375E-12
  0.101999998      -1.56600358E-11
  0.102499999      -2.79375151E-11
  0.103000000      -4.12120338E-11
  0.103500001      -5.52517927E-11
  0.104000002      -6.97491925E-11
  0.104500003      -8.43160888E-11
  0.104999997      -9.84821946E-11
  0.105499998      -1.11697061E-10
  0.105999999      -1.23336397E-10
  0.106500000      -1.32713326E-10
  0.107000001      -1.39095027E-10
  0.107500002      -1.41724951E-10
  0.108000003      -1.39850853E-10
  0.108499996      -1.32757125E-10
  0.108999997      -1.19803251E-10
  0.109499998      -1.00464706E-10
  0.109999999      -7.43768380E-11
  0.110500000      -4.13795630E-11
  0.111000001      -1.56050314E-12
  0.111500002       4.47045075E-11
  0.112000003       9.67176964E-11
  0.112499997       1.53431323E-10
  0.112999998       2.13433715E-10
  0.113499999       2.74945178E-10
  0.114000000       3.35830586E-10
  0.114500001       3.93628741E-10
  0.115000002       4.45599002E-10
  0.115500003       4.88788066E-10
  0.115999997       5.20115062E-10
  0.116499998       5.36474476E-10
  0.116999999       5.34856159E-10
  0.117500000       5.12478560E-10
  0.118000001       4.66932382E-10
  0.118500002       3.96330579E-10
  0.119000003       2.99458458E-10
  0.119499996       1.75918308E-10
  0.119999997       2.62624280E-11
  0.120499998      -1.47894044E-10
  0.120999999      -3.43781642E-10
  0.121500000      -5.57422164E-10
  0.122000001      -7.83611620E-10
  0.122500002      -1.01594611E-09
  0.123000003      -1.24689747E-09
  0.123499997      -1.46794099E-09
  0.123999998      -1.66973579E-09
  0.124499999      -1.84235815E-09
  0.125000000      -1.97558481E-09
  0.125499994      -2.05922235E-09
  0.126000002      -2.08347672E-09
  0.126499996      -2.03934647E-09
  0.127000004      -1.91904381E-09
  0.127499998      -1.71641079E-09
  0.128000006      -1.42733014E-09
  0.128500000      -1.05011710E-09
  0.128999993      -5.85855753E-10
  0.129500002      -3.86863944E-11
  0.129999995       5.83976978E-10
  0.130500004       1.27134414E-09
  0.130999997       2.00920813E-09
  0.131500006       2.78006307E-09
  0.131999999       3.56331098E-09
  0.132499993       4.33561009E-09
  0.133000001       5.07135089E-09
  0.133499995       5.74324766E-09
  0.134000003       6.32304520E-09
  0.134499997       6.78233292E-09
  0.135000005       7.09343428E-09
  0.135499999       7.23035098E-09
  0.136000007       7.16975990E-09
  0.136500001       6.89199098E-09
  0.136999995       6.38199316E-09
  0.137500003       5.63021807E-09
  0.137999997       4.63343763E-09
  0.138500005       3.39539885E-09
  0.138999999       1.92735428E-09
  0.139500007       2.48335352E-10
  0.140000001      -1.61470648E-09
  0.140499994      -3.62707397E-09
  0.141000003      -5.74666892E-09
  0.141499996      -7.92467780E-09
  0.142000005      -1.01064357E-08
  0.142499998      -1.22325785E-08
  0.143000007      -1.42404062E-08
  0.143500000      -1.60654245E-08
  0.143999994      -1.76430852E-08
  0.144500002      -1.89106206E-08
  0.144999996      -1.98089314E-08
  0.145500004      -2.02845527E-08
  0.145999998      -2.02915054E-08
  0.146500006      -1.97930827E-08
  0.147000000      -1.87634974E-08
  0.147499993      -1.71892651E-08
  0.148000002      -1.50703396E-08
  0.148499995      -1.24209567E-08
  0.149000004      -9.27001942E-09
  0.149499997      -5.66124081E-09
  0.150000006      -1.65273717E-09
  0.150500000       2.68368838E-09
  0.150999993       7.26385130E-09
  0.151500002       1.19926273E-08
  0.151999995       1.67660463E-08
  0.152500004       2.14735341E-08
  0.152999997       2.60005013E-08
  0.153500006       3.02311207E-08
  0.153999999       3.40513076E-08
  0.154499993       3.73517004E-08
  0.155000001       4.00306561E-08
  0.155499995       4.19971258E-08
  0.156000003       4.31733511E-08
  0.156499997       4.34973266E-08
  0.157000005       4.29248992E-08
  0.157499999       4.14313952E-08
  0.158000007       3.90129173E-08
  0.158500001       3.56870409E-08
  0.158999994       3.14929558E-08
  0.159500003       2.64911577E-08
  0.159999996       2.07625508E-08
  0.160500005       1.44068215E-08
  0.160999998       7.54076979E-09
  0.161500007       2.95615199E-10
  0.162000000      -7.18552773E-09
  0.162499994      -1.47510804E-08
  0.163000003      -2.22441550E-08
  0.163499996      -2.95061788E-08
  0.164000005      -3.63805732E-08
  0.164499998      -4.27162590E-08
  0.165000007      -4.83712945E-08
  0.165500000      -5.32160911E-08
  0.165999994      -5.71365852E-08
  0.166500002      -6.00369461E-08
  0.166999996      -6.18419094E-08
  0.167500004      -6.24987990E-08
  0.167999998      -6.19790157E-08
  0.168500006      -6.02789214E-08
  0.169000000      -5.74204968E-08
  0.169499993      -5.34513269E-08
  0.170000002      -4.84441074E-08
  0.170499995      -4.24958415E-08
  0.171000004      -3.57265222E-08
  0.171499997      -2.82773343E-08
  0.172000006      -2.03087218E-08
  0.172499999      -1.19979360E-08
  0.172999993      -3.53636254E-09
  0.173500001       4.87342078E-09
  0.173999995       1.30207392E-08
  0.174500003       2.06903294E-08
  0.174999997       2.76658589E-08
  0.175500005       3.37337553E-08
  0.175999999       3.86871584E-08
  0.176499993       4.23301820E-08
  0.177000001       4.44821247E-08
  0.177499995       4.49821655E-08
  0.178000003       4.36939196E-08
  0.178499997       4.05102831E-08
  0.179000005       3.53583332E-08
  0.179499999       2.82043473E-08
  0.180000007       1.90585325E-08
  0.180500001       7.97996602E-09
  0.180999994      -4.91908958E-09
  0.181500003      -1.94690308E-08
  0.181999996      -3.54393137E-08
  0.182500005      -5.25358530E-08
  0.182999998      -7.03994303E-08
  0.183500007      -8.86046649E-08
  0.184000000      -1.06660821E-07
  0.184499994      -1.24014889E-07
  0.185000002      -1.40055405E-07
  0.185499996      -1.54118425E-07
  0.186000004      -1.65496928E-07
  0.186499998      -1.73450530E-07
  0.187000006      -1.77219206E-07
  0.187500000      -1.76038725E-07
  0.187999994      -1.69158398E-07
  0.188500002      -1.55860846E-07
  0.188999996      -1.35484115E-07
  0.189500004      -1.07444507E-07
  0.189999998      -7.12622494E-08
  0.190500006      -2.65844218E-08
  0.191000000       2.67862070E-08
  0.191499993       8.88698466E-08
  0.192000002       1.59483932E-07
  0.192499995       2.38223251E-07
  0.193000004       3.24440180E-07
  0.193499997       4.17230552E-07
  0.194000006       5.15423210E-07
  0.194499999       6.17575381E-07
  0.194999993       7.21972015E-07
  0.195500001       8.26634960E-07
  0.195999995       9.29336693E-07
  0.196500003       1.02762158E-06
  0.196999997       1.11883651E-06
  0.197500005       1.20016739E-06
  0.197999999       1.26868406E-06
  0.198500007       1.32139087E-06
  0.199000001       1.35528592E-06
  0.199499995       1.36742653E-06
  0.200000003       1.35499101E-06
  0.200499997       1.31536069E-06
  0.201000005       1.24617918E-06
  0.201499999       1.14544503E-06
  0.202000007       1.01156741E-06
  0.202500001       8.43441057E-07
  0.202999994       6.40519659E-07
  0.203500003       4.02857751E-07
  0.203999996       1.31176691E-07
  0.204500005      -1.73109925E-07
  0.204999998      -5.07859568E-07
  0.205500007      -8.70190775E-07
  0.206000000      -1.25648205E-06
  0.206499994      -1.66238488E-06
  0.207000002      -2.08285837E-06
  0.207499996      -2.51221081E-06
  0.208000004      -2.94416486E-06
  0.208499998      -3.37193205E-06
  0.209000006      -3.78830350E-06
  0.209500000      -4.18575519E-06
  0.209999993      -4.55656436E-06
  0.210500002      -4.89292825E-06
  0.210999995      -5.18709885E-06
  0.211500004      -5.43151236E-06
  0.211999997      -5.61893694E-06
  0.212500006      -5.74259775E-06
  0.213000000      -5.79631251E-06
  0.213499993      -5.77461833E-06
  0.214000002      -5.67288453E-06
  0.214499995      -5.48741991E-06
  0.215000004      -5.21555467E-06
  0.215499997      -4.85572355E-06
  0.216000006      -4.40750546E-06
  0.216499999      -3.87168029E-06
  0.216999993      -3.25021620E-06
  0.217500001      -2.54628958E-06
  0.217999995      -1.76424237E-06
  0.218500003      -9.09542621E-07
  0.218999997       1.12843681E-08
  0.219500005       9.90726789E-07
  0.219999999       2.02041201E-06
  0.220500007       3.09116353E-06
  0.221000001       4.19319576E-06
  0.221499994       5.31615797E-06
  0.222000003       6.44933061E-06
  0.222499996       7.58173292E-06
  0.223000005       8.70224358E-06
  0.223499998       9.79974629E-06
  0.224000007       1.08632184E-05
  0.224500000       1.18818789E-05
  0.224999994       1.28452502E-05
  0.225500003       1.37432353E-05
  0.225999996       1.45662070E-05
  0.226500005       1.53050314E-05
  0.226999998       1.59510964E-05
  0.227500007       1.64963676E-05
  0.228000000       1.69333362E-05
  0.228499994       1.72550081E-05
  0.229000002       1.74549314E-05
  0.229499996       1.75271143E-05
  0.230000004       1.74659763E-05
  0.230499998       1.72663385E-05
  0.231000006       1.69233535E-05
  0.231500000       1.64324738E-05
  0.231999993       1.57894174E-05
  0.232500002       1.49901425E-05
  0.232999995       1.40308484E-05
  0.233500004       1.29079453E-05
  0.233999997       1.16181518E-05
  0.234500006       1.01584537E-05
  0.234999999       8.52624999E-06
  0.235499993       6.71943826E-06
  0.236000001       4.73645696E-06
  0.236499995       2.57653073E-06
  0.237000003       2.39763494E-07
  0.237499997      -2.27264013E-06
  0.238000005      -4.95824816E-06
  0.238499999      -7.81304880E-06
  0.238999993      -1.08313643E-05
  0.239500001      -1.40055863E-05
  0.239999995      -1.73258686E-05
  0.240500003      -2.07800840E-05
  0.240999997      -2.43534105E-05
  0.241500005      -2.80282839E-05
  0.241999999      -3.17841732E-05
  0.242500007      -3.55974589E-05
  0.243000001      -3.94412964E-05
  0.243499994      -4.32856650E-05
  0.244000003      -4.70971245E-05
  0.244499996      -5.08390840E-05
  0.245000005      -5.44718641E-05
  0.245499998      -5.79526604E-05
  0.246000007      -6.12358781E-05
  0.246500000      -6.42734594E-05
  0.246999994      -6.70150766E-05
  0.247500002      -6.94085320E-05
  0.247999996      -7.14003545E-05
  0.248500004      -7.29361782E-05
  0.248999998      -7.39613024E-05
  0.249500006      -7.44213539E-05
  0.250000000      -7.42629782E-05
  0.250499994      -7.34345522E-05
  0.250999987      -7.18868105E-05
  0.251500010      -6.95737326E-05
  0.252000004      -6.64534236E-05
  0.252499998      -6.24886525E-05
  0.252999991      -5.76479906E-05
  0.253500015      -5.19063469E-05
  0.254000008      -4.52459572E-05
  0.254500002      -3.76569733E-05
  0.254999995      -2.91384040E-05
  0.255499989      -1.96986512E-05
  0.256000012      -9.35610933E-06
  0.256500006       1.86022078E-06
  0.256999999       1.39102376E-05
  0.257499993       2.67425075E-05
  0.257999986       4.02938349E-05
  0.258500010       5.44891409E-05
  0.259000003       6.92416506E-05
  0.259499997       8.44527822E-05
  0.259999990       1.00012330E-04
  0.260500014       1.15799339E-04
  0.261000007       1.31682114E-04
  0.261500001       1.47519240E-04
  0.261999995       1.63160294E-04
  0.262499988       1.78447168E-04
  0.263000011       1.93214917E-04
  0.263500005       2.07293429E-04
  0.263999999       2.20508664E-04
  0.264499992       2.32684310E-04
  0.264999986       2.43643823E-04
  0.265500009       2.53211620E-04
  0.266000003       2.61215988E-04
  0.266499996       2.67490366E-04
  0.266999990       2.71875237E-04
  0.267500013       2.74220976E-04
  0.268000007       2.74389342E-04
  0.268500000       2.72255536E-04
  0.268999994       2.67710333E-04
  0.269499987       2.60662055E-04
  0.270000011       2.51038146E-04
  0.270500004       2.38786335E-04
  0.270999998       2.23877272E-04
  0.271499991       2.06304481E-04
  0.272000015       1.86085919E-04
  0.272500008       1.63264849E-04
  0.273000002       1.37909781E-04
  0.273499995       1.10115318E-04
  0.273999989       8.00015914E-05
  0.274500012       4.77137073E-05
  0.275000006       1.34213169E-05
  0.275500000      -2.26820921E-05
  0.275999993      -6.03814551E-05
  0.276499987      -9.94407237E-05
  0.277000010      -1.39605443E-04
  0.277500004      -1.80604562E-04
  0.277999997      -2.22152725E-04
  0.278499991      -2.63952825E-04
  0.279000014      -3.05697933E-04
  0.279500008      -3.47075867E-04
  0.280000001      -3.87770036E-04
  0.280499995      -4.27463005E-04
  0.280999988      -4.65839315E-04
  0.281500012      -5.02588286E-04
  0.282000005      -5.37406711E-04
  0.282499999      -5.70000848E-04
  0.282999992      -6.00089668E-04
  0.283499986      -6.27405476E-04
  0.284000009      -6.51697570E-04
  0.284500003      -6.72733353E-04
  0.284999996      -6.90298912E-04
  0.285499990      -7.04200764E-04
  0.286000013      -7.14266789E-04
  0.286500007      -7.20347220E-04
  0.287000000      -7.22313882E-04
  0.287499994      -7.20061420E-04
  0.287999988      -7.13506306E-04
  0.288500011      -7.02587189E-04
  0.289000005      -6.87264197E-04
  0.289499998      -6.67518063E-04
  0.289999992      -6.43350009E-04
  0.290499985      -6.14780409E-04
  0.291000009      -5.81848260E-04
  0.291500002      -5.44610899E-04
  0.291999996      -5.03142364E-04
  0.292499989      -4.57533344E-04
  0.293000013      -4.07891057E-04
  0.293500006      -3.54338437E-04
  0.294000000      -2.97013612E-04
  0.294499993      -2.36070759E-04
  0.294999987      -1.71679785E-04
  0.295500010      -1.04025763E-04
  0.296000004      -3.33117241E-05
  0.296499997       4.02428341E-05
  0.296999991       1.16400857E-04
  0.297500014       1.94907814E-04
  0.298000008       2.75487400E-04
  0.298500001       3.57843877E-04
  0.298999995       4.41661716E-04
  0.299499989       5.26602031E-04
  0.300000012       6.12306118E-04
  0.300500005       6.98390882E-04
  0.300999999       7.84451549E-04
  0.301499993       8.70061747E-04
  0.301999986       9.54771414E-04
  0.302500010       1.03811431E-03
  0.303000003       1.11960270E-03
  0.303499997       1.19873171E-03
  0.303999990       1.27498130E-03
  0.304500014       1.34782318E-03
  0.305000007       1.41671905E-03
  0.305500001       1.48112432E-03
  0.305999994       1.54049578E-03
  0.306499988       1.59429805E-03
  0.307000011       1.64199865E-03
  0.307500005       1.68308220E-03
  0.307999998       1.71705557E-03
  0.308499992       1.74345146E-03
  0.308999985       1.76183111E-03
  0.309500009       1.77179649E-03
  0.310000002       1.77298742E-03
  0.310499996       1.76509854E-03
  0.310999990       1.74787128E-03
  0.311500013       1.72110507E-03
  0.312000006       1.68466521E-03
  0.312500000       1.63848093E-03
  0.312999994       1.58254337E-03
  0.313499987       1.51692866E-03
  0.314000010       1.44176465E-03
  0.314500004       1.35727460E-03
  0.314999998       1.26373139E-03
  0.315499991       1.16150314E-03
  0.316000015       1.05100416E-03
  0.316500008       9.32741503E-04
  0.317000002       8.07259290E-04
  0.317499995       6.75181043E-04
  0.317999989       5.37181098E-04
  0.318500012       3.93969705E-04
  0.319000006       2.46323645E-04
  0.319499999       9.50376561E-05
  0.319999993      -5.90566888E-05
  0.320499986      -2.15113716E-04
  0.321000010      -3.72263050E-04
  0.321500003      -5.29621204E-04
  0.321999997      -6.86326122E-04
  0.322499990      -8.41505651E-04
  0.323000014      -9.94308502E-04
  0.323500007      -1.14390429E-03
  0.324000001      -1.28950388E-03
  0.324499995      -1.43031310E-03
  0.324999988      -1.56562205E-03
  0.325500011      -1.69474131E-03
  0.326000005      -1.81701081E-03
  0.326499999      -1.93185196E-03
  0.326999992      -2.03871867E-03
  0.327499986      -2.13709637E-03
  0.328000009      -2.22658413E-03
  0.328500003      -2.30673794E-03
  0.328999996      -2.37726304E-03
  0.329499990      -2.43778178E-03
  0.330000013      -2.48810952E-03
  0.330500007      -2.52795522E-03
  0.331000000      -2.55715684E-03
  0.331499994      -2.57551577E-03
  0.331999987      -2.58288207E-03
  0.332500011      -2.57907948E-03
  0.333000004      -2.56393733E-03
  0.333499998      -2.53733224E-03
  0.333999991      -2.49905232E-03
  0.334500015      -2.44892715E-03
  0.335000008      -2.38666055E-03
  0.335500002      -2.31201737E-03
  0.335999995      -2.22461810E-03
  0.336499989      -2.12409673E-03
  0.337000012      -2.01000320E-03
  0.337500006      -1.88181305E-03
  0.338000000      -1.73890358E-03
  0.338499993      -1.58060342E-03
  0.338999987      -1.40617427E-03
  0.339500010      -1.21473894E-03
  0.340000004      -1.00534549E-03
  0.340499997      -7.77013134E-04
  0.340999991      -5.28616074E-04
  0.341500014      -2.58955522E-04
  0.342000008       3.31567535E-05
  0.342500001       3.49096052E-04
  0.342999995       6.90338609E-04
  0.343499988       1.05828757E-03
  0.344000012       1.45439920E-03
  0.344500005       1.88025937E-03
  0.344999999       2.33734399E-03
  0.345499992       2.82744179E-03
  0.345999986       3.35190585E-03
  0.346500009       3.91247030E-03
  0.347000003       4.51059639E-03
  0.347499996       5.14790649E-03
  0.347999990       5.82581153E-03
  0.348500013       6.54577836E-03
  0.349000007       7.30912853E-03
  0.349500000       8.11715797E-03
  0.349999994       8.97105876E-03
  0.350499988       9.87194944E-03
  0.351000011       1.08208572E-02
  0.351500005       1.18188076E-02
  0.351999998       1.28664607E-02
  0.352499992       1.39645357E-02
  0.352999985       1.51137244E-02
  0.353500009       1.63144320E-02
  0.354000002       1.75672639E-02
  0.354499996       1.88723132E-02
  0.354999989       2.02301387E-02
  0.355500013       2.16406994E-02
  0.356000006       2.31042840E-02
  0.356500000       2.46210396E-02
  0.356999993       2.61909179E-02
  0.357499987       2.78140251E-02
  0.358000010       2.94904914E-02
  0.358500004       3.12203914E-02
  0.358999997       3.30040008E-02
  0.359499991       3.48414704E-02
  0.360000014       3.67329977E-02
  0.360500008       3.86791117E-02
  0.361000001       4.06803265E-02
  0.361499995       4.27371301E-02
  0.361999989       4.48503755E-02
  0.362500012       4.70209122E-02
  0.363000005       4.92496863E-02
  0.363499999       5.15379608E-02
  0.363999993       5.38871698E-02
  0.364499986       5.62987477E-02
  0.365000010       5.87744042E-02
  0.365500003       6.13161884E-02
  0.365999997       6.39260039E-02
  0.366499990       6.66061938E-02
  0.367000014       6.93589598E-02
  0.367500007       7.21873268E-02
  0.368000001       7.50938728E-02
  0.368499994       7.80814067E-02
  0.368999988       8.11532512E-02
  0.369500011       8.43122452E-02
  0.370000005       8.75625089E-02
  0.370499998       9.09070969E-02
  0.370999992       9.43498984E-02
  0.371499985       9.78948325E-02
  0.372000009      0.101545990    
  0.372500002      0.105307616    
  0.372999996      0.109184027    
  0.373499990      0.113178663    
  0.374000013      0.117297381    
  0.374500006      0.121544726    
  0.375000000      0.125924915    
  0.375499994      0.130444050    
  0.375999987      0.135106102    
  0.376500010      0.139917314    
  0.377000004      0.144882455    
  0.377499998      0.150008395    
  0.377999991      0.155299798    
  0.378500015      0.160762802    
  0.379000008      0.166403353    
  0.379500002      0.172228888    
  0.379999995      0.178244576    
  0.380499989      0.184457496    
  0.381000012      0.190873563    
  0.381500006      0.197500601    
  0.381999999      0.204345033    
  0.382499993      0.211410806    
  0.382999986      0.218708098    
  0.383500010      0.226240963    
  0.384000003      0.234016925    
  0.384499997      0.242041364    
  0.384999990      0.250318795    
  0.385500014      0.258859366    
  0.386000007      0.267657787    
  0.386500001      0.276730478    
  0.386999995      0.286076665    
  0.387499988      0.295694977    
  0.388000011      0.305594563    
  0.388500005      0.315767854    
  0.388999999      0.326226562    
  0.389499992      0.336961627    
  0.389999986      0.347971588    
  0.390500009      0.359250009    
  0.391000003      0.370800883    
  0.391499996      0.382605165    
  0.391999990      0.394669563    
  0.392500013      0.406975478    
  0.393000007      0.419497490    
  0.393500000      0.432225734    
  0.393999994      0.445156753    
  0.394499987      0.458260715    
  0.395000011      0.471503943    
  0.395500004      0.484882742    
  0.395999998      0.498330057    
  0.396499991      0.511845350    
  0.397000015      0.525373101    
  0.397500008      0.538878441    
  0.398000002      0.552317798    
  0.398499995      0.565625191    
  0.398999989      0.578759372    
  0.399500012      0.591644406    
  0.400000006      0.604242980    
  0.400500000      0.616431653    
  0.400999993      0.628166616    
  0.401499987      0.639302671    
  0.402000010      0.649859130    
  0.402500004      0.659639180    
  0.402999997      0.668562531    
  0.403499991      0.676500201    
  0.404000014      0.683340788    
  0.404500008      0.688908815    
  0.405000001      0.693103075    
  0.405499995      0.695680559    
  0.405999988      0.696551919    
  0.406500012      0.695512414    
  0.407000005      0.692282259    
  0.407499999      0.686772585    
  0.407999992      0.678655207    
  0.408499986      0.667741656    
  0.409000009      0.653687298    
  0.409500003      0.636277139    
  0.409999996      0.615212679    
  0.410499990      0.590150654    
  0.411000013      0.560751617    
  0.411500007      0.526558936    
  0.412000000      0.487268597    
  0.412499994      0.442458451    
  0.412999988      0.391759157    
  0.413500011      0.334445775    
  0.414000005      0.270222217    
  0.414499998      0.198431209    
  0.414999992      0.118655279    
  0.415499985       3.00191846E-02
  0.416000009      -6.79643154E-02
  0.416500002     -0.175894931    
  0.416999996     -0.294808298    
  0.417499989     -0.425298929    
  0.418000013     -0.568150222    
  0.418500006     -0.724453688    
  0.419000000     -0.894906580    
  0.419499993      -1.08075762    
  0.419999987      -1.28282928    
  0.420500010      -1.50259387    
  0.421000004      -1.74089468    
  0.421499997      -1.99913538    
  0.421999991      -2.27866268    
  0.422500014      -2.58087325    
  0.423000008      -2.90734887    
  0.423500001      -3.25955915    
  0.423999995      -3.63914227    
  0.424499989      -4.04819536    
  0.425000012      -4.48813581    
  0.425500005      -4.96112728    
  0.425999999      -5.46956348    
  0.426499993      -6.01481533    
  0.426999986      -6.60044527    
  0.427500010      -7.22762632    
  0.428000003      -7.90009594    