   0.00000000       0.00000000    
   5.00000024E-04   0.00000000    
   1.00000005E-03   0.00000000    
   1.50000001E-03   1.76273327E-15
   2.00000009E-03   1.17578126E-14
   2.49999994E-03   4.39959314E-14
   3.00000003E-03   1.20812147E-13
   3.50000011E-03   2.69190730E-13
   4.00000019E-03   5.10105955E-13
   4.49999981E-03   8.38804829E-13
   4.99999989E-03   1.19515357E-12
   5.49999997E-03   1.42525911E-12
   6.00000005E-03   1.23859321E-12
   6.50000013E-03   1.68426145E-13
   7.00000022E-03  -2.45262578E-12
   7.49999983E-03  -7.48672825E-12
   8.00000038E-03  -1.59373365E-11
   8.50000046E-03  -2.88309255E-11
   8.99999961E-03  -4.70203043E-11
   9.49999969E-03  -7.09036579E-11
   9.99999978E-03  -1.00064977E-10
   1.04999999E-02  -1.32858349E-10
   1.09999999E-02  -1.65976635E-10
   1.15000000E-02  -1.94067012E-10
   1.20000001E-02  -2.09473286E-10
   1.25000002E-02  -2.02200007E-10
   1.30000003E-02  -1.60199354E-10
   1.35000004E-02  -7.00751748E-11
   1.40000004E-02   8.17220250E-11
   1.44999996E-02   3.07174980E-10
   1.49999997E-02   6.14472029E-10
   1.54999997E-02   1.00536501E-09
   1.60000008E-02   1.47228618E-09
   1.64999999E-02   1.99547845E-09
   1.70000009E-02   2.54048937E-09
   1.75000001E-02   3.05642467E-09
   1.79999992E-02   3.47541795E-09
   1.85000002E-02   3.71376085E-09
   1.89999994E-02   3.67508424E-09
   1.95000004E-02   3.25590221E-09
   1.99999996E-02   2.35362418E-09
   2.05000006E-02   8.76973216E-10
   2.09999997E-02  -1.24156896E-09
   2.15000007E-02  -4.03191747E-09
   2.19999999E-02  -7.47213491E-09
   2.25000009E-02  -1.14749623E-08
   2.30000000E-02  -1.58766404E-08
   2.34999992E-02  -2.04296420E-08
   2.40000002E-02  -2.48009204E-08
   2.44999994E-02  -2.85772135E-08
   2.50000004E-02  -3.12786135E-08
   2.54999995E-02  -3.23812515E-08
   2.60000005E-02  -3.13491100E-08
   2.64999997E-02  -2.76745080E-08
   2.70000007E-02  -2.09256097E-08
   2.74999999E-02  -1.07987637E-08
   2.80000009E-02   2.82781776E-09
   2.85000000E-02   1.98428882E-08
   2.89999992E-02   3.98583175E-08
   2.95000002E-02   6.21772642E-08
   2.99999993E-02   8.57795754E-08
   3.05000003E-02   1.09328532E-07
   3.09999995E-02   1.31202825E-07
   3.15000005E-02   1.49555618E-07
   3.20000015E-02   1.62401733E-07
   3.24999988E-02   1.67730846E-07
   3.29999998E-02   1.63643520E-07
   3.35000008E-02   1.48503361E-07
   3.40000018E-02   1.21097571E-07
   3.44999991E-02   8.07950684E-08
   3.50000001E-02   2.76909269E-08
   3.55000012E-02  -3.72758144E-08
   3.59999985E-02  -1.12242915E-07
   3.64999995E-02  -1.94396677E-07
   3.70000005E-02  -2.80002894E-07
   3.75000015E-02  -3.64505553E-07
   3.79999988E-02  -4.42694017E-07
   3.84999998E-02  -5.08939365E-07
   3.90000008E-02  -5.57490978E-07
   3.95000018E-02  -5.82823702E-07
   3.99999991E-02  -5.80017343E-07
   4.05000001E-02  -5.45147600E-07
   4.10000011E-02  -4.75665132E-07
   4.14999984E-02  -3.70733346E-07
   4.19999994E-02  -2.31500209E-07
   4.25000004E-02  -6.12766158E-08
   4.30000015E-02   1.34401873E-07
   4.34999987E-02   3.47845088E-07
   4.39999998E-02   5.69425538E-07
   4.45000008E-02   7.87938120E-07
   4.50000018E-02   9.91101956E-07
   4.54999991E-02   1.16618230E-06
   4.60000001E-02   1.30070600E-06
   4.65000011E-02   1.38323639E-06
   4.69999984E-02   1.40416068E-06
   4.74999994E-02   1.35644268E-06
   4.80000004E-02   1.23628865E-06
   4.85000014E-02   1.04367575E-06
   4.89999987E-02   7.82695281E-07
   4.94999997E-02   4.61675057E-07
   5.00000007E-02   9.30476176E-08
   5.05000018E-02  -3.07043678E-07
   5.09999990E-02  -7.19404284E-07
   5.15000001E-02  -1.12268754E-06
   5.20000011E-02  -1.49450534E-06
   5.24999984E-02  -1.81268888E-06
   5.29999994E-02  -2.05663559E-06
   5.35000004E-02  -2.20866491E-06
   5.40000014E-02  -2.25529061E-06
   5.44999987E-02  -2.18833475E-06
   5.49999997E-02  -2.00578597E-06
   5.55000007E-02  -1.71233705E-06
   5.60000017E-02  -1.31954334E-06
   5.64999990E-02  -8.45562397E-07
   5.70000000E-02  -3.14458958E-07
   5.75000010E-02   2.44907653E-07
   5.79999983E-02   8.00371367E-07
   5.84999993E-02   1.31826062E-06
   5.90000004E-02   1.76541141E-06
   5.95000014E-02   2.11128327E-06
   5.99999987E-02   2.33004585E-06
   6.04999997E-02   2.40250847E-06
   6.10000007E-02   2.31774743E-06
   6.15000017E-02   2.07431344E-06
   6.19999990E-02   1.68091890E-06
   6.25000000E-02   1.15651653E-06
   6.30000010E-02   5.29730869E-07
   6.35000020E-02  -1.62360436E-07
   6.40000030E-02  -8.76069976E-07
   6.44999966E-02  -1.56347437E-06
   6.49999976E-02  -2.17521847E-06
   6.54999986E-02  -2.66358393E-06
   6.59999996E-02  -2.98565510E-06
   6.65000007E-02  -3.10637347E-06
   6.70000017E-02  -3.00130023E-06
   6.75000027E-02  -2.65887070E-06
   6.80000037E-02  -2.08198458E-06
   6.84999973E-02  -1.28878685E-06
   6.89999983E-02  -3.12536940E-07
   6.94999993E-02   7.99472275E-07
   7.00000003E-02   1.98794169E-06
   7.05000013E-02   3.18445768E-06
   7.10000023E-02   4.31512217E-06
   7.15000033E-02   5.30474563E-06
   7.19999969E-02   6.08135815E-06
   7.24999979E-02   6.58078397E-06
   7.29999989E-02   6.75100910E-06
   7.34999999E-02   6.55604981E-06
   7.40000010E-02   5.97905319E-06
   7.45000020E-02   5.02442435E-06
   7.50000030E-02   3.71877536E-06
   7.54999965E-02   2.11058955E-06
   7.59999976E-02   2.68558466E-07
   7.64999986E-02  -1.72137220E-06
   7.69999996E-02  -3.76012872E-06
   7.75000006E-02  -5.74060914E-06
   7.80000016E-02  -7.55350538E-06
   7.85000026E-02  -9.09351638E-06
   7.90000036E-02  -1.02655849E-05
   7.94999972E-02  -1.09908187E-05
   7.99999982E-02  -1.12116904E-05
   8.04999992E-02  -1.08962158E-05
   8.10000002E-02  -1.00407633E-05
   8.15000013E-02  -8.67134713E-06
   8.20000023E-02  -6.84321594E-06
   8.25000033E-02  -4.63872539E-06
   8.29999968E-02  -2.16355966E-06
   8.34999979E-02   4.58538295E-07
   8.39999989E-02   3.09223446E-06
   8.44999999E-02   5.59797309E-06
   8.50000009E-02   7.83976702E-06
   8.55000019E-02   9.69303801E-06
   8.60000029E-02   1.10519632E-05
   8.64999965E-02   1.18359658E-05
   8.69999975E-02   1.19948345E-05
   8.74999985E-02   1.15122693E-05
   8.79999995E-02   1.04074588E-05
   8.85000005E-02   8.73470253E-06
   8.90000015E-02   6.58089994E-06
   8.95000026E-02   4.06117351E-06
   9.00000036E-02   1.31272714E-06
   9.04999971E-02  -1.51266784E-06
   9.09999982E-02  -4.25714143E-06
   9.14999992E-02  -6.76566424E-06
   9.20000002E-02  -8.89493822E-06
   9.25000012E-02  -1.05216677E-05
   9.30000022E-02  -1.15497915E-05
   9.35000032E-02  -1.19160932E-05
   9.39999968E-02  -1.15940038E-05
   9.44999978E-02  -1.05951776E-05
   9.49999988E-02  -8.96889924E-06
   9.54999998E-02  -6.79917457E-06
   9.60000008E-02  -4.19980370E-06
   9.65000018E-02  -1.30764397E-06
   9.70000029E-02   1.72547698E-06
   9.74999964E-02   4.74176977E-06
   9.79999974E-02   7.58678470E-06
   9.84999985E-02   1.01184842E-05
   9.89999995E-02   1.22155143E-05
   9.95000005E-02   1.37840971E-05
  0.100000001       1.47632136E-05
  0.100500003       1.51276690E-05
  0.101000004       1.48888312E-05
  0.101499997       1.40931224E-05
  0.101999998       1.28182301E-05
  0.102499999       1.11673480E-05
  0.103000000       9.26185021E-06
  0.103500001       7.23286166E-06
  0.104000002       5.21227048E-06
  0.104500003       3.32384866E-06
  0.104999997       1.67500116E-06
  0.105499998       3.49825967E-07
  0.105999999      -5.96149846E-07
  0.106500000      -1.13912779E-06
  0.107000001      -1.28789463E-06
  0.107500002      -1.08215386E-06
  0.108000003      -5.88750652E-07
  0.108499996       1.04406006E-07
  0.108999997       8.95886615E-07
  0.109499998       1.67946780E-06
  0.109999999       2.35351013E-06
  0.110500000       2.82994165E-06
  0.111000001       3.04252717E-06
  0.111500002       2.95392329E-06
  0.112000003       2.56028375E-06
  0.112499997       1.89374828E-06
  0.112999998       1.02210345E-06
  0.113499999       4.58156144E-08
  0.114000000      -9.07806282E-07
  0.114500001      -1.69266275E-06
  0.115000002      -2.15409477E-06
  0.115500003      -2.13996441E-06
  0.115999997      -1.51276345E-06
  0.116499998      -1.60917850E-07
  0.116999999       1.99040642E-06
  0.117500000       4.97079282E-06
  0.118000001       8.75851129E-06
  0.118500002       1.32778268E-05
  0.119000003       1.83992888E-05
  0.119499996       2.39443070E-05
  0.119999997       2.96932103E-05
  0.120499998       3.53960459E-05
  0.120999999       4.07868611E-05
  0.121500000       4.56001180E-05
  0.122000001       4.95870590E-05
  0.122500002       5.25332543E-05
  0.123000003       5.42751441E-05
  0.123499997       5.47133095E-05
  0.123999998       5.38242493E-05
  0.124499999       5.16668479E-05
  0.125000000       4.83854346E-05
  0.125499994       4.42067139E-05
  0.126000002       3.94323833E-05
  0.126499996       3.44264736E-05
  0.127000004       2.95985246E-05
  0.127499998       2.53833168E-05
  0.128000006       2.22170747E-05
  0.128500000       2.05129072E-05
  0.128999993       2.06371169E-05
  0.129500002       2.28854678E-05
  0.129999995       2.74632021E-05
  0.130500004       3.44691216E-05
  0.130999997       4.38842108E-05
  0.131500006       5.55690458E-05
  0.131999999       6.92629037E-05
  0.132499993       8.45954055E-05
  0.133000001       1.01101556E-04
  0.133499995       1.18242278E-04
  0.134000003       1.35432376E-04
  0.134499997       1.52073422E-04
  0.135000005       1.67580714E-04
  0.135499999       1.81424533E-04
  0.136000007       1.93156739E-04
  0.136500001       2.02443320E-04
  0.136999995       2.09086327E-04
  0.137500003       2.13044914E-04
  0.137999997       2.14443906E-04
  0.138500005       2.13577645E-04
  0.138999999       2.10902464E-04
  0.139500007       2.07021687E-04
  0.140000001       2.02660216E-04
  0.140499994       1.98639245E-04
  0.141000003       1.95830216E-04
  0.141499996       1.95122018E-04
  0.142000005       1.97377231E-04
  0.142499998       2.03383650E-04
  0.143000007       2.13816878E-04
  0.143500000       2.29208206E-04
  0.143999994       2.49904784E-04
  0.144500002       2.76059756E-04
  0.144999996       3.07611219E-04
  0.145500004       3.44288244E-04
  0.145999998       3.85614752E-04
  0.146500006       4.30934742E-04
  0.147000000       4.79437644E-04
  0.147499993       5.30199206E-04
  0.148000002       5.82228880E-04
  0.148499995       6.34518743E-04
  0.149000004       6.86100277E-04
  0.149499997       7.36083311E-04
  0.150000006       7.83728319E-04
  0.150500000       8.28466145E-04
  0.150999993       8.69951095E-04
  0.151500002       9.08075890E-04
  0.151999995       9.43005900E-04
  0.152500004       9.75142175E-04
  0.152999997       1.00515992E-03
  0.153500006       1.03395514E-03
  0.153999999       1.06261810E-03
  0.154499993       1.09238550E-03
  0.155000001       1.12460821E-03
  0.155499995       1.16067159E-03
  0.156000003       1.20194687E-03
  0.156499997       1.24971266E-03
  0.157000005       1.30515266E-03
  0.157499999       1.36923883E-03
  0.158000007       1.44274393E-03
  0.158500001       1.52617390E-03
  0.158999994       1.61976495E-03
  0.159500003       1.72348460E-03
  0.159999996       1.83704309E-03
  0.160500005       1.95989991E-03
  0.160999998       2.09130114E-03
  0.161500007       2.23036506E-03
  0.162000000       2.37608049E-03
  0.162499994       2.52740970E-03
  0.163000003       2.68332986E-03
  0.163499996       2.84290686E-03
  0.164000005       3.00535816E-03
  0.164499998       3.17008956E-03
  0.165000007       3.33677791E-03
  0.165500000       3.50533542E-03
  0.165999994       3.67601658E-03
  0.166500002       3.84933455E-03
  0.166999996       4.02615545E-03
  0.167500004       4.20756359E-03
  0.167999998       4.39491402E-03
  0.168500006       4.58970154E-03
  0.169000000       4.79361229E-03
  0.169499993       5.00837388E-03
  0.170000002       5.23564918E-03
  0.170499995       5.47711831E-03
  0.171000004       5.73432725E-03
  0.171499997       6.00865902E-03
  0.172000006       6.30122283E-03
  0.172499999       6.61293184E-03
  0.172999993       6.94441330E-03
  0.173500001       7.29603833E-03
  0.173999995       7.66791077E-03
  0.174500003       8.05989560E-03
  0.174999997       8.47172644E-03
  0.175500005       8.90294835E-03
  0.175999999       9.35307238E-03
  0.176499993       9.82147735E-03
  0.177000001       1.03077777E-02
  0.177499995       1.08115636E-02
  0.178000003       1.13327159E-02
  0.178499997       1.18712587E-02
  0.179000005       1.24275889E-02
  0.179499999       1.30022280E-02
  0.180000007       1.35963121E-02
  0.180500001       1.42109189E-02
  0.180999994       1.48477256E-02
  0.181500003       1.55084217E-02
  0.181999996       1.61952227E-02
  0.182500005       1.69101004E-02
  0.182999998       1.76554322E-02
  0.183500007       1.84336640E-02
  0.184000000       1.92469954E-02
  0.184499994       2.00976916E-02
  0.185000002       2.09878255E-02
  0.185499996       2.19192337E-02
  0.186000004       2.28938181E-02
  0.186499998       2.39128843E-02
  0.187000006       2.49777194E-02
  0.187500000       2.60893088E-02
  0.187999994       2.72483900E-02
  0.188500002       2.84556933E-02
  0.188999996       2.97115631E-02
  0.189500004       3.10166646E-02
  0.189999998       3.23715247E-02
  0.190500006       3.37766521E-02
  0.191000000       3.52326035E-02
  0.191499993       3.67402695E-02
  0.192000002       3.83007042E-02
  0.192499995       3.99157479E-02
  0.193000004       4.15867418E-02
  0.193499997       4.33160998E-02
  0.194000006       4.51057777E-02
  0.194499999       4.69586030E-02
  0.194999993       4.88775186E-02
  0.195500001       5.08656688E-02
  0.195999995       5.29258810E-02
  0.196500003       5.50618097E-02
  0.196999997       5.72767891E-02
  0.197500005       5.95740639E-02
  0.197999999       6.19569086E-02
  0.198500007       6.44285604E-02
  0.199000001       6.69920594E-02
  0.199499995       6.96499050E-02
  0.200000003       7.24048316E-02
  0.200499997       7.52590001E-02
  0.201000005       7.82140270E-02
  0.201499999       8.12730417E-02
  0.202000007       8.44375044E-02
  0.202500001       8.77088830E-02
  0.202999994       9.10903662E-02
  0.203500003       9.45826024E-02
  0.203999996       9.81883034E-02
  0.204500005      0.101909392    
  0.204999998      0.105748542    
  0.205500007      0.109708987    
  0.206000000      0.113792203    
  0.206499994      0.118002832    
  0.207000002      0.122343302    
  0.207499996      0.126818463    
  0.208000004      0.131430745    
  0.208499998      0.136186510    
  0.209000006      0.141086951    
  0.209500000      0.146139279    
  0.209999993      0.151345745    
  0.210500002      0.156711638    
  0.210999995      0.162241593    
  0.211500004      0.167937890    
  0.211999997      0.173805267    
  0.212500006      0.179846972    
  0.213000000      0.186067536    
  0.213499993      0.192467943    
  0.214000002      0.199053600    
  0.214499995      0.205823913    
  0.215000004      0.212784454    
  0.215499997      0.219937012    
  0.216000006      0.227284074    
  0.216499999      0.234829336    
  0.216999993      0.242575318    
  0.217500001      0.250521064    
  0.217999995      0.258674294    
  0.218500003      0.267034501    
  0.218999997      0.275607288    
  0.219500005      0.284397274    
  0.219999999      0.293407142    
  0.220500007      0.302639693    
  0.221000001      0.312101722    
  0.221499994      0.321794391    
  0.222000003      0.331722319    
  0.222499996      0.341891229    
  0.223000005      0.352301180    
  0.223499998      0.362959355    
  0.224000007      0.373865724    
  0.224500000      0.385023057    
  0.224999994      0.396434784    
  0.225500003      0.408103645    
  0.225999996      0.420028836    
  0.226500005      0.432212353    
  0.226999998      0.444654167    
  0.227500007      0.457356244    
  0.228000000      0.470316410    
  0.228499994      0.483534604    
  0.229000002      0.497009397    
  0.229499996      0.510744393    
  0.230000004      0.524735928    
  0.230499998      0.538975596    
  0.231000006      0.553478658    
  0.231500000      0.568231881    
  0.231999993      0.583242834    
  0.232500002      0.598505020    
  0.232999995      0.614018798    
  0.233500004      0.629790962    
  0.233999997      0.645810544    
  0.234500006      0.662084699    
  0.234999999      0.678612471    
  0.235499993      0.695395350    
  0.236000001      0.712421119    
  0.236499995      0.729699135    
  0.237000003      0.747219622    
  0.237499997      0.764989495    
  0.238000005      0.782982647    
  0.238499999      0.801215231    
  0.238999993      0.819673896    
  0.239500001      0.838335276    
  0.239999995      0.857211471    
  0.240500003      0.876293540    
  0.240999997      0.895551801    
  0.241500005      0.914993942    
  0.241999999      0.934592605    
  0.242500007      0.954346836    
  0.243000001      0.974249303    
  0.243499994      0.994272411    
  0.244000003       1.01442087    
  0.244499996       1.03466392    
  0.245000005       1.05500305    
  0.245499998       1.07541239    
  0.246000007       1.09589159    
  0.246500000       1.11643183    
  0.246999994       1.13700008    
  0.247500002       1.15759540    
  0.247999996       1.17821872    
  0.248500004       1.19884145    
  0.248999998       1.21943152    
  0.249500006       1.24001491    
  0.250000000       1.26054120    
  0.250499994       1.28102648    
  0.250999987       1.30141068    
  0.251500010       1.32171178    
  0.252000004       1.34189546    
  0.252499998       1.36190593    
  0.252999991       1.38173521    
  0.253500015       1.40138507    
  0.254000008       1.42078090    
  0.254500002       1.43988454    
  0.254999995       1.45871460    
  0.255499989       1.47721696    
  0.256000012       1.49536300    
  0.256500006       1.51311290    
  0.256999999       1.53043020    
  0.257499993       1.54727590    
  0.257999986       1.56364894    
  0.258500010       1.57948864    
  0.259000003       1.59477246    
  0.259499997       1.60947073    
  0.259999990       1.62353730    
  0.260500014       1.63695550    
  0.261000007       1.64967406    
  0.261500001       1.66172624    
  0.261999995       1.67297840    
  0.262499988       1.68348396    
  0.263000011       1.69319355    
  0.263500005       1.70201910    
  0.263999999       1.70999992    
  0.264499992       1.71701455    
  0.264999986       1.72307253    
  0.265500009       1.72811627    
  0.266000003       1.73210287    
  0.266499996       1.73495936    
  0.266999990       1.73668051    
  0.267500013       1.73717284    
  0.268000007       1.73639238    
  0.268500000       1.73431444    
  0.268999994       1.73087847    
  0.269499987       1.72603214    
  0.270000011       1.71972525    
  0.270500004       1.71192777    
  0.270999998       1.70258379    
  0.271499991       1.69162631    
  0.272000015       1.67904150    
  0.272500008       1.66476238    
  0.273000002       1.64877605    
  0.273499995       1.63097692    
  0.273999989       1.61140573    
  0.274500012       1.58998656    
  0.275000006       1.56669903    
  0.275500000       1.54146457    
  0.275999993       1.51430452    
  0.276499987       1.48505378    
  0.277000010       1.45376933    
  0.277500004       1.42039430    
  0.277999997       1.38491249    
  0.278499991       1.34715903    
  0.279000014       1.30715656    
  0.279500008       1.26487172    
  0.280000001       1.22019506    
  0.280499995       1.17314970    
  0.280999988       1.12365174    
  0.281500012       1.07171917    
  0.282000005       1.01731718    
  0.282499999      0.960382521    
  0.282999992      0.900784492    
  0.283499986      0.838632226    
  0.284000009      0.773849666    
  0.284500003      0.706463754    
  0.284999996      0.636261940    
  0.285499990      0.563432217    
  0.286000013      0.487883627    
  0.286500007      0.409588218    
  0.287000000      0.328514755    
  0.287499994      0.244784057    
  0.287999988      0.158263981    
  0.288500011       6.89592361E-02
  0.289000005      -2.31993832E-02
  0.289499998     -0.118119545    
  0.289999992     -0.215865225    
  0.290499985     -0.316311449    
  0.291000009     -0.419646651    
  0.291500002     -0.525817633    
  0.291999996     -0.634790957    
  0.292499989     -0.746658564    
  0.293000013     -0.861422002    
  0.293500006     -0.978794694    
  0.294000000      -1.09898973    
  0.294499993      -1.22197211    
  0.294999987      -1.34764183    
  0.295500010      -1.47600234    
  0.296000004      -1.60704601    
  0.296499997      -1.74057734    
  0.296999991      -1.87678790    
  0.297500014      -2.01553154    
  0.298000008      -2.15673900    
  0.298500001      -2.30037642    
  0.298999995      -2.44629169    
  0.299499989      -2.59459949    
  0.300000012      -2.74497509    
  0.300500005      -2.89763904    
  0.300999999      -3.05246043    
  0.301499993      -3.20927429    
  0.301999986      -3.36804748    
  0.302500010      -3.52858448    
  0.303000003      -3.69080162    
  0.303499997      -3.85465217    
  0.303999990      -4.02008247    
  0.304500014      -4.18689299    
  0.305000007      -4.35511446    
  0.305500001      -4.52449369    
  0.305999994      -4.69497633    
  0.306499988      -4.86649179    
  0.307000011      -5.03883266    
  0.307500005      -5.21191072    
  0.307999998      -5.38566732    
  0.308499992      -5.55995417    
  0.308999985      -5.73450851    
  0.309500009      -5.90935421    
  0.310000002      -6.08419609    
  0.310499996      -6.25909138    
  0.310999990      -6.43359089    
  0.311500013      -6.60763407    
  0.312000006      -6.78129911    
  0.312500000      -6.95403767    
  0.312999994      -7.12586260    
  0.313499987      -7.29651260    
  0.314000010      -7.46587276    
  0.314500004      -7.63379669    
  0.314999998      -7.79993963    
  0.315499991      -7.96435595    
  0.316000015      -8.12665176    
  0.316500008      -8.28666306    
  0.317000002      -8.44418907    
  0.317499995      -8.59895897    
  0.317999989      -8.75074005    
  0.318500012      -8.89930439    
  0.319000006      -9.04464722    
  0.319499999      -9.18631363    
  0.319999993      -9.32442093    
  0.320499986      -9.45825386    
  0.321000010      -9.58812904    
  0.321500003      -9.71364117    
  0.321999997      -9.83455372    
  0.322499990      -9.95073128    
  0.323000014      -10.0620270    
  0.323500007      -10.1681614    
  0.324000001      -10.2689772    
  0.324499995      -10.3640156    
  0.324999988      -10.4534731    
  0.325500011      -10.5366402    
  0.326000005      -10.6137772    
  0.326499999      -10.6843557    
  0.326999992      -10.7482834    
  0.327499986      -10.8054266    
  0.328000009      -10.8553181    
  0.328500003      -10.8980551    
  0.328999996      -10.9331636    
  0.329499990      -10.9605608    
  0.330000013      -10.9800816    
  0.330500007      -10.9912968    
  0.331000000      -10.9942160    
  0.331499994      -10.9884663    
  0.331999987      -10.9741917    
  0.332500011      -10.9509029    
  0.333000004      -10.9186840    
  0.333499998      -10.8773594    
  0.333999991      -10.8266592    
  0.334500015      -10.7666941    
  0.335000008      -10.6972809    
  0.335500002      -10.6179886    
  0.335999995      -10.5290422    
  0.336499989      -10.4302416    
  0.337000012      -10.3216200    
  0.337500006      -10.2028723    
  0.338000000      -10.0739555    
  0.338499993      -9.93489647    
  0.338999987      -9.78537464    
  0.339500010      -9.62565804    
  0.340000004      -9.45524120    
  0.340499997      -9.27447891    
  0.340999991      -9.08319950    
  0.341500014      -8.88127613    
  0.342000008      -8.66868401    
  0.342500001      -8.44564152    
  0.342999995      -8.21183395    
  0.343499988      -7.96738958    
  0.344000012      -7.71246338    
  0.344500005      -7.44694328    
  0.344999999      -7.17105341    
  0.345499992      -6.88467503    
  0.345999986      -6.58817768    
  0.346500009      -6.28150606    
  0.347000003      -5.96472025    
  0.347499996      -5.63814020    
  0.347999990      -5.30172396    
  0.348500013      -4.95564508    
  0.349000007      -4.60009909    
  0.349500000      -4.23517609    
  0.349999994      -3.86116791    
  0.350499988      -3.47829413    
  0.351000011      -3.08649421    
  0.351500005      -2.68649411    
  0.351999998      -2.27810621    
  0.352499992      -1.86161160    
  0.352999985      -1.43749475    
  0.353500009      -1.00571072    
  0.354000002     -0.566603124    
  0.354499996     -0.120439164    
  0.354999989      0.332511634    
  0.355500013      0.791803420    
  0.356000006       1.25709033    
  0.356500000       1.72829354    
  0.356999993       2.20464706    
  0.357499987       2.68611813    
  0.358000010       3.17210937    
  0.358500004       3.66210246    
  0.358999997       4.15607834    
  0.359499991       4.65327549    
  0.360000014       5.15331745    
  0.360500008       5.65581369    
  0.361000001       6.16019392    
  0.361499995       6.66599751    
  0.361999989       7.17319584    
  0.362500012       7.68067265    
  0.363000005       8.18862247    
  0.363499999       8.69624901    
  0.363999993       9.20290184    
  0.364499986       9.70837879    
  0.365000010       10.2119036    
  0.365500003       10.7132492    
  0.365999997       11.2120390    
  0.366499990       11.7074747    
  0.367000014       12.1988478    
  0.367500007       12.6858606    
  0.368000001       13.1681604    
  0.368499994       13.6449461    
  0.368999988       14.1159782    
  0.369500011       14.5807266    
  0.370000005       15.0387573    
  0.370499998       15.4890776    
  0.370999992       15.9312382    
  0.371499985       16.3651791    
  0.372000009       16.7900333    
  0.372500002       17.2055588    
  0.372999996       17.6112137    
  0.373499990       18.0064640    
  0.374000013       18.3906937    
  0.374500006       18.7634258    
  0.375000000       19.1240845    
  0.375499994       19.4722366    
  0.375999987       19.8074837    
  0.376500010       20.1290932    
  0.377000004       20.4370365    
  0.377499998       20.7304649    
  0.377999991       21.0086212    
  0.378500015       21.2714424    
  0.379000008       21.5183735    
  0.379500002       21.7493343    
  0.379999995       21.9633408    
  0.380499989       22.1604614    
  0.381000012       22.3406811    
  0.381500006       22.5027599    
  0.381999999       22.6469116    
  0.382499993       22.7731361    
  0.382999986       22.8809586    
  0.383500010       22.9697590    
  0.384000003       23.0396976    
  0.384499997       23.0907612    
  0.384999990       23.1222191    
  0.385500014       23.1342926    
  0.386000007       23.1266518    
  0.386500001       23.0987301    
  0.386999995       23.0507221    
  0.387499988       22.9823532    
  0.388000011       22.8936653    
  0.388500005       22.7845764    
  0.388999999       22.6547127    
  0.389499992       22.5040722    
  0.389999986       22.3329220    
  0.390500009       22.1406250    
  0.391000003       21.9274826    
  0.391499996       21.6937790    
  0.391999990       21.4391003    
  0.392500013       21.1642761    
  0.393000007       20.8684998    
  0.393500000       20.5527649    
  0.393999994       20.2166977    
  0.394499987       19.8610039    
  0.395000011       19.4854145    
  0.395500004       19.0910110    
  0.395999998       18.6768665    
  0.396499991       18.2442436    
  0.397000015       17.7937012    
  0.397500008       17.3250389    
  0.398000002       16.8390026    
  0.398499995       16.3356342    
  0.398999989       15.8154659    
  0.399500012       15.2793865    
  0.400000006       14.7269077    
  0.400500000       14.1589041    
  0.400999993       13.5762472    
  0.401499987       12.9785919    
  0.402000010       12.3671217    
  0.402500004       11.7418947    
  0.402999997       11.1038780    
  0.403499991       10.4530830    
  0.404000014       9.79033661    
  0.404500008       9.11619377    
  0.405000001       8.43124580    
  0.405499995       7.73587894    
  0.405999988       7.03065300    
  0.406500012       6.31642151    
  0.407000005       5.59440851    
  0.407499999       4.86431360    
  0.407999992       4.12772989    
  0.408499986       3.38490462    
  0.409000009       2.63719296    
  0.409500003       1.88489425    
  0.409999996       1.12911975    
  0.410499990      0.371277332    
  0.411000013     -0.388320357    
  0.411500007      -1.14915097    
  0.412000000      -1.91009605    
  0.412499994      -2.66959405    
  0.412999988      -3.42803907    
  0.413500011      -4.18407440    
  0.414000005      -4.93764162    
  0.414499998      -5.68694592    
  0.414999992      -6.43193626    
  0.415499985      -7.17209625    
  0.416000009      -7.90616751    
  0.416500002      -8.63388538    
  0.416999996      -9.35449219    
  0.417499989      -10.0670338    
  0.418000013      -10.7703781    
  0.418500006      -11.4651079    
  0.419000000      -12.1492748    
  0.419499993      -12.8225098    
  0.419999987      -13.4839287    
  0.420500010      -14.1330576    
  0.421000004      -14.7685442    
  0.421499997      -15.3899841    
  0.421999991      -15.9965153    
  0.422500014      -16.5872879    
  0.423000008      -17.1618061    
  0.423500001      -17.7195816    
  0.423999995      -18.2594128    
  0.424499989      -18.7810802    
  0.425000012      -19.2838593    
  0.425500005      -19.7675285    
  0.425999999      -20.2317410    
  0.426499993      -20.6757145    
  0.426999986      -21.0992832    
  0.427500010      -21.5022316    
  0.428000003      -21.8838425    