   0.00000000       0.00000000    
   5.00000024E-04   0.00000000    
   1.00000005E-03   0.00000000    
   1.50000001E-03   4.40683315E-19
   2.00000009E-03   3.82082004E-18
   2.49999994E-03   1.77592567E-17
   3.00000003E-03   5.89612819E-17
   3.50000011E-03   1.56461994E-16
   4.00000019E-03   3.51286189E-16
   4.49999981E-03   6.88513855E-16
   4.99999989E-03   1.19700346E-15
   5.49999997E-03   1.85210657E-15
   6.00000005E-03   2.51806950E-15
   6.50000013E-03   2.86982449E-15
   7.00000022E-03   2.29877457E-15
   7.49999983E-03  -1.86064419E-16
   8.00000038E-03  -6.04208041E-15
   8.50000046E-03  -1.72341457E-14
   8.99999961E-03  -3.61969535E-14
   9.49999969E-03  -6.56779454E-14
   9.99999978E-03  -1.08420109E-13
   1.04999999E-02  -1.66650941E-13
   1.09999999E-02  -2.41359694E-13
   1.15000000E-02  -3.31370619E-13
   1.20000001E-02  -4.32255685E-13
   1.25000002E-02  -5.35174010E-13
   1.30000003E-02  -6.25773847E-13
   1.35000004E-02  -6.83342488E-13
   1.40000004E-02  -6.80430755E-13
   1.44999996E-02  -5.83206497E-13
   1.49999997E-02  -3.52794725E-13
   1.54999997E-02   5.21645647E-14
   1.60000008E-02   6.71577377E-13
   1.64999999E-02   1.53851855E-12
   1.70000009E-02   2.67251065E-12
   1.75000001E-02   4.07173904E-12
   1.79999992E-02   5.70470017E-12
   1.85000002E-02   7.50199469E-12
   1.89999994E-02   9.34920630E-12
   1.95000004E-02   1.10819531E-11
   1.99999996E-02   1.24843356E-11
   2.05000006E-02   1.32919847E-11
   2.09999997E-02   1.32008354E-11
   2.15000007E-02   1.18824629E-11
   2.19999999E-02   9.00645010E-12
   2.25000009E-02   4.26967533E-12
   2.30000000E-02  -2.56822515E-12
   2.34999992E-02  -1.16447962E-11
   2.40000002E-02  -2.29524386E-11
   2.44999994E-02  -3.62969724E-11
   2.50000004E-02  -5.12609261E-11
   2.54999995E-02  -6.71758968E-11
   2.60000005E-02  -8.31084854E-11
   2.64999997E-02  -9.78643902E-11
   2.70000007E-02  -1.10014414E-10
   2.74999999E-02  -1.17945514E-10
   2.80000009E-02  -1.19938240E-10
   2.85000000E-02  -1.14270565E-10
   2.89999992E-02  -9.93452681E-11
   2.95000002E-02  -7.38363745E-11
   2.99999993E-02  -3.68471642E-11
   3.05000003E-02   1.19298616E-11
   3.09999995E-02   7.20627100E-11
   3.15000005E-02   1.42252335E-10
   3.20000015E-02   2.20241672E-10
   3.24999988E-02   3.02774805E-10
   3.29999998E-02   3.85618398E-10
   3.35000008E-02   4.63655114E-10
   3.40000018E-02   5.31055366E-10
   3.44999991E-02   5.81528492E-10
   3.50000001E-02   6.08649964E-10
   3.55000012E-02   6.06253714E-10
   3.59999985E-02   5.68874059E-10
   3.64999995E-02   4.92214158E-10
   3.70000005E-02   3.73614251E-10
   3.75000015E-02   2.12487125E-10
   3.79999988E-02   1.06872488E-11
   3.84999998E-02  -2.27221131E-10
   3.90000008E-02  -4.93828700E-10
   3.95000018E-02  -7.78907383E-10
   3.99999991E-02  -1.06961773E-09
   4.05000001E-02  -1.35090905E-09
   4.10000011E-02  -1.60611224E-09
   4.14999984E-02  -1.81771198E-09
   4.19999994E-02  -1.96827044E-09
   4.25000004E-02  -2.04146478E-09
   4.30000015E-02  -2.02318340E-09
   4.34999987E-02  -1.90262162E-09
   4.39999998E-02  -1.67330405E-09
   4.45000008E-02  -1.33396316E-09
   4.50000018E-02  -8.89203100E-10
   4.54999991E-02  -3.49882068E-10
   4.60000001E-02   2.66840022E-10
   4.65000011E-02   9.37825595E-10
   4.69999984E-02   1.63467506E-09
   4.74999994E-02   2.32482589E-09
   4.80000004E-02   2.97300873E-09
   4.85000014E-02   3.54299989E-09
   4.89999987E-02   3.99959266E-09
   4.94999997E-02   4.31068514E-09
   5.00000007E-02   4.44936621E-09
   5.05000018E-02   4.39586678E-09
   5.09999990E-02   4.13925516E-09
   5.15000001E-02   3.67873221E-09
   5.20000011E-02   3.02443404E-09
   5.24999984E-02   2.19763563E-09
   5.29999994E-02   1.23030430E-09
   5.35000004E-02   1.63979122E-10
   5.40000014E-02  -9.52009804E-10
   5.44999987E-02  -2.06291628E-09
   5.49999997E-02  -3.11144666E-09
   5.55000007E-02  -4.04097733E-09
   5.60000017E-02  -4.79894746E-09
   5.64999990E-02  -5.34022382E-09
   5.70000000E-02  -5.63022917E-09
   5.75000010E-02  -5.64761748E-09
   5.79999983E-02  -5.38629763E-09
   5.84999993E-02  -4.85663998E-09
   5.90000004E-02  -4.08572198E-09
   5.95000014E-02  -3.11654813E-09
   5.99999987E-02  -2.00621608E-09
   6.04999997E-02  -8.23077440E-10
   6.10000007E-02   3.56986551E-10
   6.15000017E-02   1.45500179E-09
   6.19999990E-02   2.39381004E-09
   6.25000000E-02   3.10316883E-09
   6.30000010E-02   3.52473095E-09
   6.35000020E-02   3.61657349E-09
   6.40000030E-02   3.35696559E-09
   6.44999966E-02   2.74707923E-09
   6.49999976E-02   1.81240611E-09
   6.54999986E-02   6.02705386E-10
   6.59999996E-02  -8.09604439E-10
   6.65000007E-02  -2.33261166E-09
   6.70000017E-02  -3.85953047E-09
   6.75000027E-02  -5.27457322E-09
   6.80000037E-02  -6.45978693E-09
   6.84999973E-02  -7.30247995E-09
   6.89999983E-02  -7.70281083E-09
   6.94999993E-02  -7.58107710E-09
   7.00000003E-02  -6.88422341E-09
   7.05000013E-02  -5.59112401E-09
   7.10000023E-02  -3.71622866E-09
   7.15000033E-02  -1.31126177E-09
   7.19999969E-02   1.53526425E-09
   7.24999979E-02   4.70080019E-09
   7.29999989E-02   8.03374878E-09
   7.34999999E-02   1.13605134E-08
   7.40000010E-02   1.44942893E-08
   7.45000020E-02   1.72451582E-08
   7.50000030E-02   1.94309600E-08
   7.54999965E-02   2.08882991E-08
   7.59999976E-02   2.14830855E-08
   7.64999986E-02   2.11198827E-08
   7.69999996E-02   1.97495069E-08
   7.75000006E-02   1.73743224E-08
   7.80000016E-02   1.40507943E-08
   7.85000026E-02   9.88903803E-09
   7.90000036E-02   5.04926279E-09
   7.94999972E-02  -2.64838346E-10
   7.99999982E-02  -5.81546544E-09
   8.04999992E-02  -1.13424425E-08
   8.10000002E-02  -1.65766885E-08
   8.15000013E-02  -2.12547171E-08
   8.20000023E-02  -2.51333585E-08
   8.25000033E-02  -2.80038446E-08
   8.29999968E-02  -2.97044132E-08
   8.34999979E-02  -3.01306677E-08
   8.39999989E-02  -2.92429743E-08
   8.44999999E-02  -2.70704223E-08
   8.50000009E-02  -2.37109887E-08
   8.55000019E-02  -1.93277874E-08
   8.60000029E-02  -1.41415368E-08
   8.64999965E-02  -8.41955394E-09
   8.69999975E-02  -2.46185383E-09
   8.74999985E-02   3.41492257E-09
   8.79999995E-02   8.89485463E-09
   8.85000005E-02   1.36803946E-08
   8.90000015E-02   1.75092971E-08
   8.95000026E-02   2.01698160E-08
   9.00000036E-02   2.15132907E-08
   9.04999971E-02   2.14633076E-08
   9.09999982E-02   2.00208543E-08
   9.14999992E-02   1.72651546E-08
   9.20000002E-02   1.33500047E-08
   9.25000012E-02   8.49585291E-09
   9.30000022E-02   2.97798808E-09
   9.35000032E-02  -2.88848323E-09
   9.39999968E-02  -8.76600836E-09
   9.44999978E-02  -1.43133034E-08
   9.49999988E-02  -1.92043235E-08
   9.54999998E-02  -2.31463417E-08
   9.60000008E-02  -2.58960853E-08
   9.65000018E-02  -2.72729483E-08
   9.70000029E-02  -2.71684915E-08
   9.74999964E-02  -2.55516799E-08
   9.79999974E-02  -2.24695391E-08
   9.84999985E-02  -1.80432220E-08
   9.89999995E-02  -1.24597221E-08
   9.95000005E-02  -5.95981797E-09
  0.100000001       1.17700982E-09
  0.100500003       8.64973071E-09
  0.101000004       1.61538569E-08
  0.101499997       2.33993447E-08
  0.101999998       3.01271825E-08
  0.102499999       3.61235770E-08
  0.103000000       4.12308800E-08
  0.103500001       4.53545574E-08
  0.104000002       4.84658393E-08
  0.104500003       5.05998692E-08
  0.104999997       5.18495789E-08
  0.105499998       5.23557873E-08
  0.105999999       5.22942081E-08
  0.106500000       5.18603898E-08
  0.107000001       5.12536324E-08
  0.107500002       5.06611215E-08
  0.108000003       5.02433934E-08
  0.108499996       5.01223063E-08
  0.108999997       5.03723783E-08
  0.109499998       5.10162188E-08
  0.109999999       5.20244612E-08
  0.110500000       5.33203206E-08
  0.111000001       5.47884369E-08
  0.111500002       5.62875471E-08
  0.112000003       5.76660959E-08
  0.112499997       5.87796016E-08
  0.112999998       5.95085652E-08
  0.113499999       5.97755445E-08
  0.114000000       5.95600476E-08
  0.114500001       5.89099258E-08
  0.115000002       5.79482311E-08
  0.115500003       5.68747147E-08
  0.115999997       5.59615287E-08
  0.116499998       5.55431043E-08
  0.116999999       5.60004736E-08
  0.117500000       5.77407739E-08
  0.118000001       6.11730968E-08
  0.118500002       6.66821833E-08
  0.119000003       7.46014592E-08
  0.119499996       8.51873594E-08
  0.119999997       9.85967432E-08
  0.120499998       1.14869046E-07
  0.120999999       1.33914781E-07
  0.121500000       1.55511529E-07
  0.122000001       1.79308316E-07
  0.122500002       2.04838400E-07
  0.123000003       2.31540497E-07
  0.123499997       2.58787594E-07
  0.123999998       2.85921999E-07
  0.124499999       3.12294759E-07
  0.125000000       3.37307824E-07
  0.125499994       3.60455886E-07
  0.126000002       3.81365652E-07
  0.126499996       3.99830384E-07
  0.127000004       4.15836638E-07
  0.127499998       4.29582059E-07
  0.128000006       4.41482143E-07
  0.128500000       4.52164613E-07
  0.128999993       4.62452135E-07
  0.129500002       4.73332790E-07
  0.129999995       4.85919941E-07
  0.130500004       5.01403008E-07
  0.130999997       5.20991364E-07
  0.131500006       5.45854675E-07
  0.131999999       5.77062679E-07
  0.132499993       6.15527256E-07
  0.133000001       6.61951447E-07
  0.133499995       7.16787440E-07
  0.134000003       7.80206165E-07
  0.134499997       8.52082678E-07
  0.135000005       9.31996226E-07
  0.135499999       1.01924752E-06
  0.136000007       1.11289285E-06
  0.136500001       1.21179289E-06
  0.136999995       1.31467516E-06
  0.137500003       1.42020792E-06
  0.137999997       1.52708026E-06
  0.138500005       1.63408572E-06
  0.138999999       1.74020568E-06
  0.139500007       1.84468661E-06
  0.140000001       1.94710697E-06
  0.140499994       2.04743196E-06
  0.141000003       2.14604938E-06
  0.141499996       2.24378755E-06
  0.142000005       2.34191225E-06
  0.142499998       2.44210264E-06
  0.143000007       2.54640281E-06
  0.143500000       2.65715926E-06
  0.143999994       2.77693744E-06
  0.144500002       2.90842854E-06
  0.144999996       3.05434651E-06
  0.145500004       3.21732136E-06
  0.145999998       3.39979738E-06
  0.146500006       3.60393483E-06
  0.147000000       3.83152792E-06
  0.147499993       4.08393726E-06
  0.148000002       4.36204436E-06
  0.148499995       4.66623123E-06
  0.149000004       4.99638554E-06
  0.149499997       5.35193203E-06
  0.150000006       5.73188481E-06
  0.150500000       6.13493285E-06
  0.150999993       6.55953727E-06
  0.151500002       7.00404416E-06
  0.151999995       7.46681462E-06
  0.152500004       7.94635162E-06
  0.152999997       8.44142687E-06
  0.153500006       8.95120593E-06
  0.153999999       9.47534863E-06
  0.154499993       1.00141006E-05
  0.155000001       1.05683484E-05
  0.155499995       1.11396685E-05
  0.156000003       1.17303243E-05
  0.156499997       1.23432392E-05
  0.157000005       1.29819546E-05
  0.157499999       1.36505523E-05
  0.158000007       1.43535490E-05
  0.158500001       1.50957794E-05
  0.158999994       1.58822641E-05
  0.159500003       1.67180751E-05
  0.159999996       1.76082085E-05
  0.160500005       1.85574427E-05
  0.160999998       1.95702432E-05
  0.161500007       2.06506593E-05
  0.162000000       2.18022687E-05
  0.162499994       2.30281403E-05
  0.163000003       2.43308241E-05
  0.163499996       2.57123829E-05
  0.164000005       2.71744484E-05
  0.164499998       2.87183102E-05
  0.165000007       3.03450288E-05
  0.165500000       3.20555555E-05
  0.165999994       3.38508908E-05
  0.166500002       3.57322278E-05
  0.166999996       3.77011020E-05
  0.167500004       3.97595286E-05
  0.167999998       4.19101489E-05
  0.168500006       4.41563025E-05
  0.169000000       4.65021294E-05
  0.169499993       4.89526246E-05
  0.170000002       5.15136271E-05
  0.170499995       5.41918198E-05
  0.171000004       5.69946860E-05
  0.171499997       5.99304403E-05
  0.172000006       6.30079085E-05
  0.172499999       6.62364473E-05
  0.172999993       6.96257848E-05
  0.173500001       7.31858963E-05
  0.173999995       7.69268809E-05
  0.174500003       8.08588375E-05
  0.174999997       8.49917415E-05
  0.175500005       8.93354081E-05
  0.175999999       9.38994126E-05
  0.176499993       9.86930463E-05
  0.177000001       1.03725361E-04
  0.177499995       1.09005196E-04
  0.178000003       1.14541275E-04
  0.178499997       1.20342273E-04
  0.179000005       1.26416999E-04
  0.179499999       1.32774454E-04
  0.180000007       1.39424097E-04
  0.180500001       1.46375911E-04
  0.180999994       1.53640576E-04
  0.181500003       1.61229618E-04
  0.181999996       1.69155537E-04
  0.182500005       1.77431866E-04
  0.182999998       1.86073245E-04
  0.183500007       1.95095534E-04
  0.184000000       2.04515702E-04
  0.184499994       2.14351850E-04
  0.185000002       2.24623218E-04
  0.185499996       2.35349973E-04
  0.186000004       2.46553216E-04
  0.186499998       2.58254906E-04
  0.187000006       2.70477583E-04
  0.187500000       2.83244328E-04
  0.187999994       2.96578743E-04
  0.188500002       3.10504780E-04
  0.188999996       3.25046596E-04
  0.189500004       3.40228638E-04
  0.189999998       3.56075703E-04
  0.190500006       3.72612762E-04
  0.191000000       3.89865076E-04
  0.191499993       4.07858286E-04
  0.192000002       4.26618528E-04
  0.192499995       4.46172664E-04
  0.193000004       4.66548314E-04
  0.193499997       4.87774028E-04
  0.194000006       5.09879494E-04
  0.194499999       5.32895501E-04
  0.194999993       5.56854473E-04
  0.195500001       5.81790286E-04
  0.195999995       6.07738213E-04
  0.196500003       6.34735101E-04
  0.196999997       6.62819773E-04
  0.197500005       6.92032510E-04
  0.197999999       7.22415221E-04
  0.198500007       7.54011620E-04
  0.199000001       7.86866702E-04
  0.199499995       8.21027264E-04
  0.200000003       8.56540981E-04
  0.200499997       8.93456978E-04
  0.201000005       9.31825256E-04
  0.201499999       9.71697038E-04
  0.202000007       1.01312459E-03
  0.202500001       1.05616113E-03
  0.202999994       1.10086100E-03
  0.203500003       1.14727928E-03
  0.203999996       1.19547208E-03
  0.204500005       1.24549645E-03
  0.204999998       1.29741093E-03
  0.205500007       1.35127525E-03
  0.206000000       1.40715064E-03
  0.206499994       1.46509940E-03
  0.207000002       1.52518600E-03
  0.207499996       1.58747646E-03
  0.208000004       1.65203877E-03
  0.208499998       1.71894312E-03
  0.209000006       1.78826158E-03
  0.209500000       1.86006818E-03
  0.209999993       1.93443929E-03
  0.210500002       2.01145373E-03
  0.210999995       2.09119194E-03
  0.211500004       2.17373669E-03
  0.211999997       2.25917250E-03
  0.212500006       2.34758575E-03
  0.213000000       2.43906421E-03
  0.213499993       2.53369822E-03
  0.214000002       2.63157859E-03
  0.214499995       2.73279799E-03
  0.215000004       2.83745001E-03
  0.215499997       2.94563058E-03
  0.216000006       3.05743585E-03
  0.216499999       3.17296456E-03
  0.216999993       3.29231564E-03
  0.217500001       3.41558992E-03
  0.217999995       3.54288891E-03
  0.218500003       3.67431599E-03
  0.218999997       3.80997662E-03
  0.219500005       3.94997746E-03
  0.219999999       4.09442885E-03
  0.220500007       4.24344046E-03
  0.221000001       4.39712591E-03
  0.221499994       4.55559976E-03
  0.222000003       4.71897889E-03
  0.222499996       4.88738250E-03
  0.223000005       5.06093074E-03
  0.223499998       5.23974560E-03
  0.224000007       5.42395236E-03
  0.224500000       5.61367488E-03
  0.224999994       5.80903934E-03
  0.225500003       6.01017429E-03
  0.225999996       6.21720729E-03
  0.226500005       6.43026782E-03
  0.226999998       6.64948439E-03
  0.227500007       6.87498739E-03
  0.228000000       7.10690534E-03
  0.228499994       7.34536769E-03
  0.229000002       7.59050436E-03
  0.229499996       7.84244295E-03
  0.230000004       8.10131337E-03
  0.230499998       8.36724043E-03
  0.231000006       8.64035357E-03
  0.231500000       8.92078131E-03
  0.231999993       9.20865033E-03
  0.232500002       9.50408820E-03
  0.232999995       9.80721880E-03
  0.233500004       1.01181716E-02
  0.233999997       1.04370723E-02
  0.234500006       1.07640466E-02
  0.234999999       1.10992203E-02
  0.235499993       1.14427218E-02
  0.236000001       1.17946761E-02
  0.236499995       1.21552059E-02
  0.237000003       1.25244362E-02
  0.237499997       1.29024880E-02
  0.238000005       1.32894805E-02
  0.238499999       1.36855301E-02
  0.238999993       1.40907522E-02
  0.239500001       1.45052550E-02
  0.239999995       1.49291400E-02
  0.240500003       1.53625151E-02
  0.240999997       1.58054773E-02
  0.241500005       1.62581149E-02
  0.241999999       1.67205110E-02
  0.242500007       1.71927474E-02
  0.243000001       1.76748969E-02
  0.243499994       1.81670282E-02
  0.244000003       1.86692029E-02
  0.244499996       1.91814750E-02
  0.245000005       1.97038911E-02
  0.245499998       2.02364940E-02
  0.246000007       2.07793210E-02
  0.246500000       2.13323999E-02
  0.246999994       2.18957569E-02
  0.247500002       2.24694051E-02
  0.247999996       2.30533592E-02
  0.248500004       2.36476231E-02
  0.248999998       2.42521930E-02
  0.249500006       2.48670541E-02
  0.250000000       2.54921932E-02
  0.250499994       2.61275843E-02
  0.250999987       2.67731920E-02
  0.251500010       2.74289735E-02
  0.252000004       2.80948747E-02
  0.252499998       2.87708249E-02
  0.252999991       2.94567347E-02
  0.253500015       3.01525164E-02
  0.254000008       3.08580566E-02
  0.254500002       3.15732248E-02
  0.254999995       3.22978757E-02
  0.255499989       3.30318585E-02
  0.256000012       3.37750018E-02
  0.256500006       3.45271230E-02
  0.256999999       3.52880098E-02
  0.257499993       3.60574387E-02
  0.257999986       3.68351713E-02
  0.258500010       3.76209542E-02
  0.259000003       3.84145156E-02
  0.259499997       3.92155759E-02
  0.259999990       4.00238261E-02
  0.260500014       4.08389457E-02
  0.261000007       4.16606031E-02
  0.261500001       4.24884558E-02
  0.261999995       4.33221348E-02
  0.262499988       4.41612490E-02
  0.263000011       4.50054221E-02
  0.263500005       4.58542258E-02
  0.263999999       4.67072316E-02
  0.264499992       4.75639850E-02
  0.264999986       4.84240092E-02
  0.265500009       4.92868051E-02
  0.266000003       5.01518622E-02
  0.266499996       5.10186255E-02
  0.266999990       5.18865362E-02
  0.267500013       5.27549982E-02
  0.268000007       5.36233895E-02
  0.268500000       5.44910654E-02
  0.268999994       5.53573668E-02
  0.269499987       5.62215932E-02
  0.270000011       5.70830330E-02
  0.270500004       5.79409450E-02
  0.270999998       5.87945692E-02
  0.271499991       5.96431233E-02
  0.272000015       6.04857877E-02
  0.272500008       6.13217354E-02
  0.273000002       6.21501207E-02
  0.273499995       6.29700571E-02
  0.273999989       6.37806579E-02
  0.274500012       6.45810068E-02
  0.275000006       6.53701797E-02
  0.275500000       6.61472157E-02
  0.275999993       6.69111609E-02
  0.276499987       6.76610097E-02
  0.277000010       6.83957115E-02
  0.277500004       6.91142529E-02
  0.277999997       6.98155761E-02
  0.278499991       7.04985932E-02
  0.279000014       7.11621717E-02
  0.279500008       7.18051791E-02
  0.280000001       7.24264458E-02
  0.280499995       7.30247796E-02
  0.280999988       7.35989735E-02
  0.281500012       7.41478205E-02
  0.282000005       7.46700838E-02
  0.282499999       7.51645118E-02
  0.282999992       7.56298006E-02
  0.283499986       7.60646611E-02
  0.284000009       7.64677823E-02
  0.284500003       7.68378675E-02
  0.284999996       7.71735460E-02
  0.285499990       7.74734765E-02
  0.286000013       7.77363032E-02
  0.286500007       7.79606774E-02
  0.287000000       7.81452060E-02
  0.287499994       7.82885253E-02
  0.287999988       7.83892870E-02
  0.288500011       7.84460902E-02
  0.289000005       7.84575269E-02
  0.289499998       7.84221962E-02
  0.289999992       7.83386976E-02
  0.290499985       7.82056525E-02
  0.291000009       7.80216604E-02
  0.291500002       7.77852982E-02
  0.291999996       7.74951428E-02
  0.292499989       7.71497861E-02
  0.293000013       7.67477676E-02
  0.293500006       7.62877092E-02
  0.294000000       7.57682621E-02
  0.294499993       7.51880258E-02
  0.294999987       7.45456144E-02
  0.295500010       7.38397092E-02
  0.296000004       7.30689466E-02
  0.296499997       7.22320378E-02
  0.296999991       7.13277012E-02
  0.297500014       7.03546256E-02
  0.298000008       6.93115517E-02
  0.298500001       6.81972727E-02
  0.298999995       6.70106038E-02
  0.299499989       6.57503828E-02
  0.300000012       6.44154847E-02
  0.300500005       6.30048364E-02
  0.300999999       6.15173057E-02
  0.301499993       5.99518716E-02
  0.301999986       5.83075397E-02
  0.302500010       5.65833859E-02
  0.303000003       5.47785386E-02
  0.303499997       5.28921746E-02
  0.303999990       5.09234890E-02
  0.304500014       4.88717407E-02
  0.305000007       4.67362367E-02
  0.305500001       4.45163324E-02
  0.305999994       4.22114618E-02
  0.306499988       3.98210995E-02
  0.307000011       3.73447686E-02
  0.307500005       3.47820818E-02
  0.307999998       3.21326889E-02
  0.308499992       2.93962806E-02
  0.308999985       2.65726633E-02
  0.309500009       2.36616991E-02
  0.310000002       2.06633117E-02
  0.310499996       1.75774880E-02
  0.310999990       1.44043164E-02
  0.311500013       1.11440104E-02
  0.312000006       7.79677695E-03
  0.312500000       4.36294312E-03
  0.312999994       8.42967653E-04
  0.313499987      -2.76262662E-03
  0.314000010      -6.45322353E-03
  0.314500004      -1.02281412E-02
  0.314999998      -1.40865752E-02
  0.315499991      -1.80276483E-02
  0.316000015      -2.20503993E-02
  0.316500008      -2.61537265E-02
  0.317000002      -3.03364377E-02
  0.317499995      -3.45972255E-02
  0.317999989      -3.89346518E-02
  0.318500012      -4.33471613E-02
  0.319000006      -4.78331521E-02
  0.319499999      -5.23908921E-02
  0.319999993      -5.70185706E-02
  0.320499986      -6.17142394E-02
  0.321000010      -6.64758384E-02
  0.321500003      -7.13012740E-02
  0.321999997      -7.61883184E-02
  0.322499990      -8.11346322E-02
  0.323000014      -8.61378238E-02
  0.323500007      -9.11953673E-02
  0.324000001      -9.63046551E-02
  0.324499995     -0.101462901    
  0.324999988     -0.106667280    
  0.325500011     -0.111914806    
  0.326000005     -0.117202409    
  0.326499999     -0.122526936    
  0.326999992     -0.127885103    
  0.327499986     -0.133273527    
  0.328000009     -0.138688698    
  0.328500003     -0.144127041    
  0.328999996     -0.149584830    
  0.329499990     -0.155058250    
  0.330000013     -0.160543427    
  0.330500007     -0.166036263    
  0.331000000     -0.171532631    
  0.331499994     -0.177028298    
  0.331999987     -0.182518959    
  0.332500011     -0.188000232    
  0.333000004     -0.193467647    
  0.333499998     -0.198916659    
  0.333999991     -0.204342663    
  0.334500015     -0.209740981    
  0.335000008     -0.215106964    
  0.335500002     -0.220435783    
  0.335999995     -0.225722536    
  0.336499989     -0.230962351    
  0.337000012     -0.236150309    
  0.337500006     -0.241281435    
  0.338000000     -0.246350631    
  0.338499993     -0.251352817    
  0.338999987     -0.256282896    
  0.339500010     -0.261135668    
  0.340000004     -0.265905917    
  0.340499997     -0.270588338    
  0.340999991     -0.275177777    
  0.341500014     -0.279668897    
  0.342000008     -0.284056365    
  0.342500001     -0.288334936    
  0.342999995     -0.292499304    
  0.343499988     -0.296544105    
  0.344000012     -0.300464094    
  0.344500005     -0.304253936    
  0.344999999     -0.307908416    
  0.345499992     -0.311422348    
  0.345999986     -0.314790547    
  0.346500009     -0.318008006    
  0.347000003     -0.321069568    
  0.347499996     -0.323970258    
  0.347999990     -0.326705217    
  0.348500013     -0.329269558    
  0.349000007     -0.331658542    
  0.349500000     -0.333867371    
  0.349999994     -0.335891485    
  0.350499988     -0.337726355    
  0.351000011     -0.339367568    
  0.351500005     -0.340810806    
  0.351999998     -0.342051953    
  0.352499992     -0.343086898    
  0.352999985     -0.343911648    
  0.353500009     -0.344522446    
  0.354000002     -0.344915539    
  0.354499996     -0.345087320    
  0.354999989     -0.345034301    
  0.355500013     -0.344753206    
  0.356000006     -0.344240993    
  0.356500000     -0.343494654    
  0.356999993     -0.342511445    
  0.357499987     -0.341288775    
  0.358000010     -0.339824229    
  0.358500004     -0.338115662    
  0.358999997     -0.336161107    
  0.359499991     -0.333958775    
  0.360000014     -0.331507146    
  0.360500008     -0.328804880    
  0.361000001     -0.325850844    
  0.361499995     -0.322644293    
  0.361999989     -0.319184512    
  0.362500012     -0.315471053    
  0.363000005     -0.311503738    
  0.363499999     -0.307282537    
  0.363999993     -0.302807778    
  0.364499986     -0.298079967    
  0.365000010     -0.293099910    
  0.365500003     -0.287868589    
  0.365999997     -0.282387257    
  0.366499990     -0.276657373    
  0.367000014     -0.270680785    
  0.367500007     -0.264459610    
  0.368000001     -0.257996112    
  0.368499994     -0.251292855    
  0.368999988     -0.244352609    
  0.369500011     -0.237178430    
  0.370000005     -0.229773551    
  0.370499998     -0.222141594    
  0.370999992     -0.214286506    
  0.371499985     -0.206212416    
  0.372000009     -0.197923616    
  0.372500002     -0.189424708    
  0.372999996     -0.180720508    
  0.373499990     -0.171816081    
  0.374000013     -0.162716776    
  0.374500006     -0.153428257    
  0.375000000     -0.143956363    
  0.375499994     -0.134307295    
  0.375999987     -0.124487363    
  0.376500010     -0.114503220    
  0.377000004     -0.104361691    
  0.377499998      -9.40698162E-02
  0.377999991      -8.36350471E-02
  0.378500015      -7.30650350E-02
  0.379000008      -6.23675846E-02
  0.379500002      -5.15506566E-02
  0.379999995      -4.06224877E-02
  0.380499989      -2.95915361E-02
  0.381000012      -1.84662491E-02
  0.381500006      -7.25538749E-03
  0.381999999       4.03203117E-03
  0.382499993       1.53870443E-02
  0.382999986       2.68005673E-02
  0.383500010       3.82632464E-02
  0.384000003       4.97656055E-02
  0.384499997       6.12982213E-02
  0.384999990       7.28514716E-02
  0.385500014       8.44155997E-02
  0.386000007       9.59808379E-02
  0.386500001      0.107537180    
  0.386999995      0.119074546    
  0.387499988      0.130582824    
  0.388000011      0.142051831    
  0.388500005      0.153471380    
  0.388999999      0.164831191    
  0.389499992      0.176120892    
  0.389999986      0.187330142    
  0.390500009      0.198448524    
  0.391000003      0.209465563    
  0.391499996      0.220370874    
  0.391999990      0.231154099    
  0.392500013      0.241804928    
  0.393000007      0.252313137    
  0.393500000      0.262668431    
  0.393999994      0.272860795    
  0.394499987      0.282880217    
  0.395000011      0.292716801    
  0.395500004      0.302360892    
  0.395999998      0.311802864    
  0.396499991      0.321033150    
  0.397000015      0.330042601    
  0.397500008      0.338822305    
  0.398000002      0.347363293    
  0.398499995      0.355656981    
  0.398999989      0.363694757    
  0.399500012      0.371468455    
  0.400000006      0.378970057    
  0.400500000      0.386191517    
  0.400999993      0.393125296    
  0.401499987      0.399764001    
  0.402000010      0.406100422    
  0.402500004      0.412127644    
  0.402999997      0.417839110    
  0.403499991      0.423228353    
  0.404000014      0.428289205    
  0.404500008      0.433015823    
  0.405000001      0.437402666    
  0.405499995      0.441444457    
  0.405999988      0.445136100    
  0.406500012      0.448472917    
  0.407000005      0.451450616    
  0.407499999      0.454065263    
  0.407999992      0.456313252    
  0.408499986      0.458191425    
  0.409000009      0.459696919    
  0.409500003      0.460827440    
  0.409999996      0.461580962    
  0.410499990      0.461956054    
  0.411000013      0.461951822    
  0.411500007      0.461567461    
  0.412000000      0.460802644    
  0.412499994      0.459657699    
  0.412999988      0.458133310    
  0.413500011      0.456230253    
  0.414000005      0.453949839    
  0.414499998      0.451293677    
  0.414999992      0.448263943    
  0.415499985      0.444862932    
  0.416000009      0.441093355    
  0.416500002      0.436958343    
  0.416999996      0.432461232    
  0.417499989      0.427605838    
  0.418000013      0.422396511    
  0.418500006      0.416837603    
  0.419000000      0.410934001    
  0.419499993      0.404691041    
  0.419999987      0.398114443    
  0.420500010      0.391210198    
  0.421000004      0.383984774    
  0.421499997      0.376445144    
  0.421999991      0.368598521    
  0.422500014      0.360452592    
  0.423000008      0.352015316    
  0.423500001      0.343294948    
  0.423999995      0.334300220    
  0.424499989      0.325040102    
  0.425000012      0.315523833    
  0.425500005      0.305760950    
  0.425999999      0.295761108    
  0.426499993      0.285534263    
  0.426999986      0.275090516    
  0.427500010      0.264440119    
  0.428000003      0.253593594    