   0.00000000      -1.05170384E-09
   5.00000024E-04  -3.08125059E-09
   1.00000005E-03  -4.82609597E-09
   1.50000001E-03  -6.03870953E-09
   2.00000009E-03  -6.53935617E-09
   2.49999994E-03  -6.24139451E-09
   3.00000003E-03  -5.16613730E-09
   3.50000011E-03  -3.44530959E-09
   4.00000019E-03  -1.31046063E-09
   4.49999981E-03   9.29949173E-10
   4.99999989E-03   2.92368685E-09
   5.49999997E-03   4.31481872E-09
   6.00000005E-03   4.78651430E-09
   6.50000013E-03   4.10187395E-09
   7.00000022E-03   2.13799889E-09
   7.49999983E-03  -1.09105747E-09
   8.00000038E-03  -5.42592415E-09
   8.50000046E-03  -1.05703304E-08
   8.99999961E-03  -1.61168909E-08
   9.49999969E-03  -2.15891056E-08
   9.99999978E-03  -2.64966058E-08
   1.04999999E-02  -3.03991108E-08
   1.09999999E-02  -3.29731655E-08
   1.15000000E-02  -3.40749402E-08
   1.20000001E-02  -3.37920092E-08
   1.25000002E-02  -3.24773737E-08
   1.30000003E-02  -3.07600239E-08
   1.35000004E-02  -2.95278184E-08
   1.40000004E-02  -2.98806704E-08
   1.44999996E-02  -3.30544481E-08
   1.49999997E-02  -4.03187634E-08
   1.54999997E-02  -5.28544142E-08
   1.60000008E-02  -7.16186719E-08
   1.64999999E-02  -9.72086980E-08
   1.70000009E-02  -1.29734545E-07
   1.75000001E-02  -1.68713740E-07
   1.79999992E-02  -2.12999097E-07
   1.85000002E-02  -2.60749943E-07
   1.89999994E-02  -3.09454407E-07
   1.95000004E-02  -3.56008030E-07
   1.99999996E-02  -3.96848947E-07
   2.05000006E-02  -4.28146791E-07
   2.09999997E-02  -4.46037632E-07
   2.15000007E-02  -4.46892898E-07
   2.19999999E-02  -4.27607318E-07
   2.25000009E-02  -3.85887063E-07
   2.30000000E-02  -3.20518581E-07
   2.34999992E-02  -2.31596928E-07
   2.40000002E-02  -1.20694679E-07
   2.44999994E-02   9.04650310E-09
   2.50000004E-02   1.52914609E-07
   2.54999995E-02   3.04725717E-07
   2.60000005E-02   4.57024100E-07
   2.64999997E-02   6.01381032E-07
   2.70000007E-02   7.28781174E-07
   2.74999999E-02   8.30080126E-07
   2.80000009E-02   8.96510755E-07
   2.85000000E-02   9.20209516E-07
   2.89999992E-02   8.94734455E-07
   2.95000002E-02   8.15540204E-07
   2.99999993E-02   6.80380310E-07
   3.05000003E-02   4.89606578E-07
   3.09999995E-02   2.46341386E-07
   3.15000005E-02  -4.34957244E-08
   3.20000015E-02  -3.71318123E-07
   3.24999988E-02  -7.26160010E-07
   3.29999998E-02  -1.09511564E-06
   3.35000008E-02  -1.46391210E-06
   3.40000018E-02  -1.81759117E-06
   3.44999991E-02  -2.14126590E-06
   3.50000001E-02  -2.42091346E-06
   3.55000012E-02  -2.64416030E-06
   3.59999985E-02  -2.80101813E-06
   3.64999995E-02  -2.88452156E-06
   3.70000005E-02  -2.89123477E-06
   3.75000015E-02  -2.82158862E-06
   3.79999988E-02  -2.68002464E-06
   3.84999998E-02  -2.47493222E-06
   3.90000008E-02  -2.21837468E-06
   3.95000018E-02  -1.92561174E-06
   3.99999991E-02  -1.61443870E-06
   4.05000001E-02  -1.30437536E-06
   4.10000011E-02  -1.01574074E-06
   4.14999984E-02  -7.68664790E-07
   4.19999994E-02  -5.82086841E-07
   4.25000004E-02  -4.72796899E-07
   4.30000015E-02  -4.54570170E-07
   4.34999987E-02  -5.37444635E-07
   4.39999998E-02  -7.27182965E-07
   4.45000008E-02  -1.02494914E-06
   4.50000018E-02  -1.42722138E-06
   4.54999991E-02  -1.92594825E-06
   4.60000001E-02  -2.50894232E-06
   4.65000011E-02  -3.16049113E-06
   4.69999984E-02  -3.86215697E-06
   4.74999994E-02  -4.59371813E-06
   4.80000004E-02  -5.33421098E-06
   4.85000014E-02  -6.06300500E-06
   4.89999987E-02  -6.76087075E-06
   4.94999997E-02  -7.41096301E-06
   5.00000007E-02  -7.99968439E-06
   5.05000018E-02  -8.51737968E-06
   5.09999990E-02  -8.95881658E-06
   5.15000001E-02  -9.32344119E-06
   5.20000011E-02  -9.61539263E-06
   5.24999984E-02  -9.84327562E-06
   5.29999994E-02  -1.00197121E-05
   5.35000004E-02  -1.01606938E-05
   5.40000014E-02  -1.02847862E-05
   5.44999987E-02  -1.04122100E-05
   5.49999997E-02  -1.05638810E-05
   5.55000007E-02  -1.07604246E-05
   5.60000017E-02  -1.10212613E-05
   5.64999990E-02  -1.13637780E-05
   5.70000000E-02  -1.18026437E-05
   5.75000010E-02  -1.23493046E-05
   5.79999983E-02  -1.30116796E-05
   5.84999993E-02  -1.37940688E-05
   5.90000004E-02  -1.46972679E-05
   5.95000014E-02  -1.57188861E-05
   5.99999987E-02  -1.68538263E-05
   6.04999997E-02  -1.80949319E-05
   6.10000007E-02  -1.94336990E-05
   6.15000017E-02  -2.08610709E-05
   6.19999990E-02  -2.23682382E-05
   6.25000000E-02  -2.39473848E-05
   6.30000010E-02  -2.55923660E-05
   6.35000020E-02  -2.72992693E-05
   6.40000030E-02  -2.90668268E-05
   6.44999966E-02  -3.08966701E-05
   6.49999976E-02  -3.27933922E-05
   6.54999986E-02  -3.47644673E-05
   6.59999996E-02  -3.68200017E-05
   6.65000007E-02  -3.89723173E-05
   6.70000017E-02  -4.12354784E-05
   6.75000027E-02  -4.36247101E-05
   6.80000037E-02  -4.61557902E-05
   6.84999973E-02  -4.88444493E-05
   6.89999983E-02  -5.17057888E-05
   6.94999993E-02  -5.47538184E-05
   7.00000003E-02  -5.80010565E-05
   7.05000013E-02  -6.14582823E-05
   7.10000023E-02  -6.51344089E-05
   7.15000033E-02  -6.90365268E-05
   7.19999969E-02  -7.31700420E-05
   7.24999979E-02  -7.75390363E-05
   7.29999989E-02  -8.21466092E-05
   7.34999999E-02  -8.69954019E-05
   7.40000010E-02  -9.20881794E-05
   7.45000020E-02  -9.74283321E-05
   7.50000030E-02  -1.03020509E-04
   7.54999965E-02  -1.08871114E-04
   7.59999976E-02  -1.14988790E-04
   7.64999986E-02  -1.21384786E-04
   7.69999996E-02  -1.28073239E-04
   7.75000006E-02  -1.35071343E-04
   7.80000016E-02  -1.42399338E-04
   7.85000026E-02  -1.50080596E-04
   7.90000036E-02  -1.58141236E-04
   7.94999972E-02  -1.66610043E-04
   7.99999982E-02  -1.75518027E-04
   8.04999992E-02  -1.84898119E-04
   8.10000002E-02  -1.94784705E-04
   8.15000013E-02  -2.05213306E-04
   8.20000023E-02  -2.16220142E-04
   8.25000033E-02  -2.27841883E-04
   8.29999968E-02  -2.40115245E-04
   8.34999979E-02  -2.53076869E-04
   8.39999989E-02  -2.66763353E-04
   8.44999999E-02  -2.81210901E-04
   8.50000009E-02  -2.96455692E-04
   8.55000019E-02  -3.12533812E-04
   8.60000029E-02  -3.29481554E-04
   8.64999965E-02  -3.47335706E-04
   8.69999975E-02  -3.66133667E-04
   8.74999985E-02  -3.85913969E-04
   8.79999995E-02  -4.06716601E-04
   8.85000005E-02  -4.28583240E-04
   8.90000015E-02  -4.51557775E-04
   8.95000026E-02  -4.75686335E-04
   9.00000036E-02  -5.01017901E-04
   9.04999971E-02  -5.27604367E-04
   9.09999982E-02  -5.55500854E-04
   9.14999992E-02  -5.84765919E-04
   9.20000002E-02  -6.15461380E-04
   9.25000012E-02  -6.47653011E-04
   9.30000022E-02  -6.81410136E-04
   9.35000032E-02  -7.16806157E-04
   9.39999968E-02  -7.53918081E-04
   9.44999978E-02  -7.92827050E-04
   9.49999988E-02  -8.33618105E-04
   9.54999998E-02  -8.76380422E-04
   9.60000008E-02  -9.21207306E-04
   9.65000018E-02  -9.68196138E-04
   9.70000029E-02  -1.01744849E-03
   9.74999964E-02  -1.06907054E-03
   9.79999974E-02  -1.12317258E-03
   9.84999985E-02  -1.17986975E-03
   9.89999995E-02  -1.23928150E-03
   9.95000005E-02  -1.30153226E-03
  0.100000001      -1.36675162E-03
  0.100500003      -1.43507367E-03
  0.101000004      -1.50663848E-03
  0.101499997      -1.58159097E-03
  0.101999998      -1.66008191E-03
  0.102499999      -1.74226810E-03
  0.103000000      -1.82831218E-03
  0.103500001      -1.91838306E-03
  0.104000002      -2.01265654E-03
  0.104500003      -2.11131480E-03
  0.104999997      -2.21454678E-03
  0.105499998      -2.32254900E-03
  0.105999999      -2.43552565E-03
  0.106500000      -2.55368836E-03
  0.107000001      -2.67725694E-03
  0.107500002      -2.80646025E-03
  0.108000003      -2.94153509E-03
  0.108499996      -3.08272731E-03
  0.108999997      -3.23029282E-03
  0.109499998      -3.38449585E-03
  0.109999999      -3.54561093E-03
  0.110500000      -3.71392351E-03
  0.111000001      -3.88972834E-03
  0.111500002      -4.07333160E-03
  0.112000003      -4.26505087E-03
  0.112499997      -4.46521444E-03
  0.112999998      -4.67416272E-03
  0.113499999      -4.89224913E-03
  0.114000000      -5.11983968E-03
  0.114500001      -5.35731297E-03
  0.115000002      -5.60506107E-03
  0.115500003      -5.86349145E-03
  0.115999997      -6.13302458E-03
  0.116499998      -6.41409773E-03
  0.116999999      -6.70716213E-03
  0.117500000      -7.01268762E-03
  0.118000001      -7.33115943E-03
  0.118500002      -7.66308093E-03
  0.119000003      -8.00897367E-03
  0.119499996      -8.36937688E-03
  0.119999997      -8.74484982E-03
  0.120499998      -9.13596991E-03
  0.120999999      -9.54333507E-03
  0.121500000      -9.96756274E-03
  0.122000001      -1.04092918E-02
  0.122500002      -1.08691789E-02
  0.123000003      -1.13479048E-02
  0.123499997      -1.18461689E-02
  0.123999998      -1.23646948E-02
  0.124499999      -1.29042286E-02
  0.125000000      -1.34655386E-02
  0.125499994      -1.40494145E-02
  0.126000002      -1.46566723E-02
  0.126499996      -1.52881499E-02
  0.127000004      -1.59447100E-02
  0.127499998      -1.66272409E-02
  0.128000006      -1.73366629E-02
  0.128500000      -1.80739164E-02
  0.128999993      -1.88399721E-02
  0.129500002      -1.96358301E-02
  0.129999995      -2.04625148E-02
  0.130500004      -2.13210918E-02
  0.130999997      -2.22126488E-02
  0.131500006      -2.31383108E-02
  0.131999999      -2.40992345E-02
  0.132499993      -2.50966046E-02
  0.133000001      -2.61316467E-02
  0.133499995      -2.72056218E-02
  0.134000003      -2.83198189E-02
  0.134499997      -2.94755697E-02
  0.135000005      -3.06742396E-02
  0.135499999      -3.19172293E-02
  0.136000007      -3.32059786E-02
  0.136500001      -3.45419608E-02
  0.136999995      -3.59266959E-02
  0.137500003      -3.73617299E-02
  0.137999997      -3.88486534E-02
  0.138500005      -4.03890908E-02
  0.138999999      -4.19847183E-02
  0.139500007      -4.36372384E-02
  0.140000001      -4.53483947E-02
  0.140499994      -4.71199825E-02
  0.141000003      -4.89538275E-02
  0.141499996      -5.08518107E-02
  0.142000005      -5.28158359E-02
  0.142499998      -5.48478663E-02
  0.143000007      -5.69499098E-02
  0.143500000      -5.91240115E-02
  0.143999994      -6.13722578E-02
  0.144500002      -6.36967868E-02
  0.144999996      -6.60997853E-02
  0.145500004      -6.85834810E-02
  0.145999998      -7.11501539E-02
  0.146500006      -7.38021135E-02
  0.147000000      -7.65417218E-02
  0.147499993      -7.93713927E-02
  0.148000002      -8.22935849E-02
  0.148499995      -8.53108019E-02
  0.149000004      -8.84255916E-02
  0.149499997      -9.16405469E-02
  0.150000006      -9.49583128E-02
  0.150500000      -9.83815491E-02
  0.150999993     -0.101912998    
  0.151500002     -0.105555423    
  0.151999995     -0.109311633    
  0.152500004     -0.113184504    
  0.152999997     -0.117176905    
  0.153500006     -0.121291786    
  0.153999999     -0.125532135    
  0.154499993     -0.129900962    
  0.155000001     -0.134401307    
  0.155499995     -0.139036298    
  0.156000003     -0.143809050    
  0.156499997     -0.148722723    
  0.157000005     -0.153780520    
  0.157499999     -0.158985689    
  0.158000007     -0.164341494    
  0.158500001     -0.169851243    
  0.158999994     -0.175518289    
  0.159500003     -0.181345984    
  0.159999996     -0.187337711    
  0.160500005     -0.193496868    
  0.160999998     -0.199826896    
  0.161500007     -0.206331268    
  0.162000000     -0.213013425    
  0.162499994     -0.219876826    
  0.163000003     -0.226924971    
  0.163499996     -0.234161377    
  0.164000005     -0.241589591    
  0.164499998     -0.249213085    
  0.165000007     -0.257035375    
  0.165500000     -0.265060008    
  0.165999994     -0.273290485    
  0.166500002     -0.281730324    
  0.166999996     -0.290382981    
  0.167500004     -0.299251914    
  0.167999998     -0.308340520    
  0.168500006     -0.317652285    
  0.169000000     -0.327190608    
  0.169499993     -0.336958736    
  0.170000002     -0.346960008    
  0.170499995     -0.357197702    
  0.171000004     -0.367675036    
  0.171499997     -0.378395170    
  0.172000006     -0.389361173    
  0.172499999     -0.400576144    
  0.172999993     -0.412042975    
  0.173500001     -0.423764557    
  0.173999995     -0.435743719    
  0.174500003     -0.447983176    
  0.174999997     -0.460485518    
  0.175500005     -0.473253310    
  0.175999999     -0.486288965    
  0.176499993     -0.499594808    
  0.177000001     -0.513173103    
  0.177499995     -0.527025759    
  0.178000003     -0.541154802    
  0.178499997     -0.555562019    
  0.179000005     -0.570249081    
  0.179499999     -0.585217357    
  0.180000007     -0.600468218    
  0.180500001     -0.616002798    
  0.180999994     -0.631821990    
  0.181500003     -0.647926509    
  0.181999996     -0.664317012    
  0.182500005     -0.680993915    
  0.182999998     -0.697957218    
  0.183500007     -0.715206921    
  0.184000000     -0.732742667    
  0.184499994     -0.750563920    
  0.185000002     -0.768669903    
  0.185499996     -0.787059546    
  0.186000004     -0.805731416    
  0.186499998     -0.824684024    
  0.187000006     -0.843915343    
  0.187500000     -0.863423109    
  0.187999994     -0.883204937    
  0.188500002     -0.903257906    
  0.188999996     -0.923578918    
  0.189500004     -0.944164395    
  0.189999998     -0.965010285    
  0.190500006     -0.986112475    
  0.191000000      -1.00746644    
  0.191499993      -1.02906704    
  0.192000002      -1.05090928    
  0.192499995      -1.07298708    
  0.193000004      -1.09529424    
  0.193499997      -1.11782408    
  0.194000006      -1.14056969    
  0.194499999      -1.16352367    
  0.194999993      -1.18667805    
  0.195500001      -1.21002448    
  0.195999995      -1.23355401    
  0.196500003      -1.25725734    
  0.196999997      -1.28112483    
  0.197500005      -1.30514622    
  0.197999999      -1.32931089    
  0.198500007      -1.35360742    
  0.199000001      -1.37802434    
  0.199499995      -1.40254927    
  0.200000003      -1.42716944    
  0.200499997      -1.45187140    
  0.201000005      -1.47664118    
  0.201499999      -1.50146449    
  0.202000007      -1.52632618    
  0.202500001      -1.55121064    
  0.202999994      -1.57610202    
  0.203500003      -1.60098350    
  0.203999996      -1.62583768    
  0.204500005      -1.65064681    
  0.204999998      -1.67539215    
  0.205500007      -1.70005476    
  0.206000000      -1.72461498    
  0.206499994      -1.74905252    
  0.207000002      -1.77334642    
  0.207499996      -1.79747522    
  0.208000004      -1.82141674    
  0.208499998      -1.84514856    
  0.209000006      -1.86864746    
  0.209500000      -1.89188969    
  0.209999993      -1.91485071    
  0.210500002      -1.93750584    
  0.210999995      -1.95982945    
  0.211500004      -1.98179543    
  0.211999997      -2.00337696    
  0.212500006      -2.02454662    
  0.213000000      -2.04527664    
  0.213499993      -2.06553864    
  0.214000002      -2.08530354    
  0.214499995      -2.10454178    
  0.215000004      -2.12322354    
  0.215499997      -2.14131808    
  0.216000006      -2.15879488    
  0.216499999      -2.17562175    
  0.216999993      -2.19176722    
  0.217500001      -2.20719886    
  0.217999995      -2.22188401    
  0.218500003      -2.23578954    
  0.218999997      -2.24888206    
  0.219500005      -2.26112723    
  0.219999999      -2.27249050    
  0.220500007      -2.28293729    
  0.221000001      -2.29243255    
  0.221499994      -2.30094075    
  0.222000003      -2.30842614    
  0.222499996      -2.31485295    
  0.223000005      -2.32018471    
  0.223499998      -2.32438469    
  0.224000007      -2.32741642    
  0.224500000      -2.32924390    
  0.224999994      -2.32983041    
  0.225500003      -2.32913828    
  0.225999996      -2.32713103    
  0.226500005      -2.32377172    
  0.226999998      -2.31902289    
  0.227500007      -2.31284761    
  0.228000000      -2.30520940    
  0.228499994      -2.29607177    
  0.229000002      -2.28539872    
  0.229499996      -2.27315331    
  0.230000004      -2.25929999    
  0.230499998      -2.24380279    
  0.231000006      -2.22662687    
  0.231500000      -2.20773697    
  0.231999993      -2.18709898    
  0.232500002      -2.16467810    
  0.232999995      -2.14044046    
  0.233500004      -2.11435342    
  0.233999997      -2.08638477    
  0.234500006      -2.05650234    
  0.234999999      -2.02467489    
  0.235499993      -1.99087286    
  0.236000001      -1.95506632    
  0.236499995      -1.91722667    
  0.237000003      -1.87732613    
  0.237499997      -1.83533835    
  0.238000005      -1.79123747    
  0.238499999      -1.74499881    
  0.238999993      -1.69659925    
  0.239500001      -1.64601600    
  0.239999995      -1.59322786    
  0.240500003      -1.53821456    
  0.240999997      -1.48095775    
  0.241500005      -1.42143941    
  0.241999999      -1.35964334    
  0.242500007      -1.29555488    
  0.243000001      -1.22916114    
  0.243499994      -1.16045046    
  0.244000003      -1.08941269    
  0.244499996      -1.01603949    
  0.245000005     -0.940324068    
  0.245499998     -0.862261474    
  0.246000007     -0.781848967    
  0.246500000     -0.699085593    
  0.246999994     -0.613972187    
  0.247500002     -0.526511371    
  0.247999996     -0.436708122    
  0.248500004     -0.344569892    
  0.248999998     -0.250105590    
  0.249500006     -0.153326273    
  0.250000000      -5.42450696E-02
  0.250499994       4.71229255E-02
  0.250999987      0.150760069    
  0.251500010      0.256646127    
  0.252000004      0.364758164    
  0.252499998      0.475071222    
  0.252999991      0.587558627    
  0.253500015      0.702191055    
  0.254000008      0.818936884    
  0.254500002      0.937762082    
  0.254999995       1.05863023    
  0.255499989       1.18150210    
  0.256000012       1.30633605    
  0.256500006       1.43308794    
  0.256999999       1.56171095    
  0.257499993       1.69215584    
  0.257999986       1.82437098    
  0.258500010       1.95830226    
  0.259000003       2.09389257    
  0.259499997       2.23108220    
  0.259999990       2.36980867    
  0.260500014       2.51000810    
  0.261000007       2.65161276    
  0.261500001       2.79455280    
  0.261999995       2.93875599    
  0.262499988       3.08414745    
  0.263000011       3.23064947    
  0.263500005       3.37818170    
  0.263999999       3.52666163    
  0.264499992       3.67600560    
  0.264999986       3.82612562    
  0.265500009       3.97693253    
  0.266000003       4.12833405    
  0.266499996       4.28023577    
  0.266999990       4.43254232    
  0.267500013       4.58515453    
  0.268000007       4.73797274    
  0.268500000       4.89089394    
  0.268999994       5.04381371    
  0.269499987       5.19662571    
  0.270000011       5.34922171    
  0.270500004       5.50149059    
  0.270999998       5.65332174    
  0.271499991       5.80460119    
  0.272000015       5.95521402    
  0.272500008       6.10504293    
  0.273000002       6.25396967    
  0.273499995       6.40187502    
  0.273999989       6.54863787    
  0.274500012       6.69413567    
  0.275000006       6.83824682    
  0.275500000       6.98084641    
  0.275999993       7.12180901    
  0.276499987       7.26100874    
  0.277000010       7.39831972    
  0.277500004       7.53361559    
  0.277999997       7.66676903    
  0.278499991       7.79765177    
  0.279000014       7.92613649    
  0.279500008       8.05209446    
  0.280000001       8.17539787    
  0.280499995       8.29591751    
  0.280999988       8.41352844    
  0.281500012       8.52810192    
  0.282000005       8.63951111    
  0.282499999       8.74763107    
  0.282999992       8.85233784    
  0.283499986       8.95350647    
  0.284000009       9.05101490    
  0.284500003       9.14473915    
  0.284999996       9.23456097    
  0.285499990       9.32036209    
  0.286000013       9.40202332    
  0.286500007       9.47943020    
  0.287000000       9.55247021    
  0.287499994       9.62103081    
  0.287999988       9.68500137    
  0.288500011       9.74427700    
  0.289000005       9.79875088    
  0.289499998       9.84832191    
  0.289999992       9.89289093    
  0.290499985       9.93236065    
  0.291000009       9.96663761    
  0.291500002       9.99563217    
  0.291999996       10.0192537    
  0.292499989       10.0374203    
  0.293000013       10.0500507    
  0.293500006       10.0570669    
  0.294000000       10.0583954    
  0.294499993       10.0539665    
  0.294999987       10.0437136    
  0.295500010       10.0275745    
  0.296000004       10.0054932    
  0.296499997       9.97741508    
  0.296999991       9.94328976    
  0.297500014       9.90307426    
  0.298000008       9.85672760    
  0.298500001       9.80421257    
  0.298999995       9.74549961    
  0.299499989       9.68056202    
  0.300000012       9.60937786    
  0.300500005       9.53193188    
  0.300999999       9.44821262    
  0.301499993       9.35821342    
  0.301999986       9.26193333    
  0.302500010       9.15937710    
  0.303000003       9.05055428    
  0.303499997       8.93547821    
  0.303999990       8.81417084    
  0.304500014       8.68665695    
  0.305000007       8.55296803    
  0.305500001       8.41314125    
  0.305999994       8.26721764    
  0.306499988       8.11524391    
  0.307000011       7.95727301    
  0.307500005       7.79336262    
  0.307999998       7.62357521    
  0.308499992       7.44798040    
  0.308999985       7.26665258    
  0.309500009       7.07967281    
  0.310000002       6.88712406    
  0.310499996       6.68909693    
  0.310999990       6.48568821    
  0.311500013       6.27699804    
  0.312000006       6.06313229    
  0.312500000       5.84420204    
  0.312999994       5.62032366    
  0.313499987       5.39161777    
  0.314000010       5.15821123    
  0.314500004       4.92023420    
  0.314999998       4.67782164    
  0.315499991       4.43111515    
  0.316000015       4.18025923    
  0.316500008       3.92540240    
  0.317000002       3.66669750    
  0.317499995       3.40430260    
  0.317999989       3.13838005    
  0.318500012       2.86909413    
  0.319000006       2.59661508    
  0.319499999       2.32111716    
  0.319999993       2.04277539    
  0.320499986       1.76177108    
  0.321000010       1.47828722    
  0.321500003       1.19250858    
  0.321999997      0.904623151    
  0.322499990      0.614823103    
  0.323000014      0.323303461    
  0.323500007       3.02605107E-02
  0.324000001     -0.264106065    
  0.324499995     -0.559595168    
  0.324999988     -0.856003642    
  0.325500011      -1.15312660    
  0.326000005      -1.45075858    
  0.326499999      -1.74869347    
  0.326999992      -2.04672146    
  0.327499986      -2.34463286    
  0.328000009      -2.64221859    
  0.328500003      -2.93926835    
  0.328999996      -3.23557210    
  0.329499990      -3.53091931    
  0.330000013      -3.82510018    
  0.330500007      -4.11790466    
  0.331000000      -4.40912294    
  0.331499994      -4.69854593    
  0.331999987      -4.98596430    
  0.332500011      -5.27117157    
  0.333000004      -5.55396128    
  0.333499998      -5.83412838    
  0.333999991      -6.11147070    
  0.334500015      -6.38578701    
  0.335000008      -6.65687847    
  0.335500002      -6.92454815    
  0.335999995      -7.18860197    
  0.336499989      -7.44884920    
  0.337000012      -7.70510197    
  0.337500006      -7.95717382    
  0.338000000      -8.20488548    
  0.338499993      -8.44805813    
  0.338999987      -8.68651772    
  0.339500010      -8.92009449    
  0.340000004      -9.14862156    
  0.340499997      -9.37193871    
  0.340999991      -9.58988762    
  0.341500014      -9.80231571    
  0.342000008      -10.0090742    
  0.342500001      -10.2100201    
  0.342999995      -10.4050131    
  0.343499988      -10.5939198    
  0.344000012      -10.7766104    
  0.344500005      -10.9529638    
  0.344999999      -11.1228571    
  0.345499992      -11.2861786    
  0.345999986      -11.4428215    
  0.346500009      -11.5926819    
  0.347000003      -11.7356625    
  0.347499996      -11.8716736    
  0.347999990      -12.0006285    
  0.348500013      -12.1224489    
  0.349000007      -12.2370625    
  0.349500000      -12.3444014    
  0.349999994      -12.4444065    
  0.350499988      -12.5370226    
  0.351000011      -12.6222019    
  0.351500005      -12.6999025    
  0.351999998      -12.7700901    
  0.352499992      -12.8327360    
  0.352999985      -12.8878183    
  0.353500009      -12.9353228    
  0.354000002      -12.9752388    
  0.354499996      -13.0075636    
  0.354999989      -13.0323029    
  0.355500013      -13.0494652    
  0.356000006      -13.0590677    
  0.356500000      -13.0611324    
  0.356999993      -13.0556889    
  0.357499987      -13.0427713    
  0.358000010      -13.0224199    
  0.358500004      -12.9946823    
  0.358999997      -12.9596109    
  0.359499991      -12.9172649    
  0.360000014      -12.8677082    
  0.360500008      -12.8110113    
  0.361000001      -12.7472477    
  0.361499995      -12.6765003    
  0.361999989      -12.5988560    
  0.362500012      -12.5144053    
  0.363000005      -12.4232454    
  0.363499999      -12.3254786    
  0.363999993      -12.2212114    
  0.364499986      -12.1105566    
  0.365000010      -11.9936295    
  0.365500003      -11.8705511    
  0.365999997      -11.7414465    
  0.366499990      -11.6064444    
  0.367000014      -11.4656782    
  0.367500007      -11.3192854    
  0.368000001      -11.1674061    
  0.368499994      -11.0101862    
  0.368999988      -10.8477716    
  0.369500011      -10.6803131    
  0.370000005      -10.5079670    
  0.370499998      -10.3308878    
  0.370999992      -10.1492357    
  0.371499985      -9.96317196    
  0.372000009      -9.77286148    
  0.372500002      -9.57847023    
  0.372999996      -9.38016796    
  0.373499990      -9.17812443    
  0.374000013      -8.97251129    
  0.374500006      -8.76350212    
  0.375000000      -8.55127144    
  0.375499994      -8.33599567    
  0.375999987      -8.11785221    
  0.376500010      -7.89701653    
  0.377000004      -7.67366600    
  0.377499998      -7.44797993    
  0.377999991      -7.22013569    
  0.378500015      -6.99031162    
  0.379000008      -6.75868607    
  0.379500002      -6.52543545    
  0.379999995      -6.29073620    
  0.380499989      -6.05476570    
  0.381000012      -5.81769896    
  0.381500006      -5.57970858    
  0.381999999      -5.34096766    
  0.382499993      -5.10164595    
  0.382999986      -4.86191368    
  0.383500010      -4.62193871    
  0.384000003      -4.38188696    
  0.384499997      -4.14192152    
  0.384999990      -3.90220284    
  0.385500014      -3.66289043    
  0.386000007      -3.42414165    
  0.386500001      -3.18611026    
  0.386999995      -2.94894862    
  0.387499988      -2.71280622    
  0.388000011      -2.47782898    
  0.388500005      -2.24416041    
  0.388999999      -2.01194072    
  0.389499992      -1.78130734    
  0.389999986      -1.55239403    
  0.390500009      -1.32533073    
  0.391000003      -1.10024393    
  0.391499996     -0.877256930    
  0.391999990     -0.656488657    
  0.392500013     -0.438053936    
  0.393000007     -0.222063735    
  0.393500000      -8.62627104E-03
  0.393999994      0.202154785    
  0.394499987      0.410180241    
  0.395000011      0.615355074    
  0.395500004      0.817588925    
  0.395999998       1.01679468    
  0.396499991       1.21288824    
  0.397000015       1.40579045    
  0.397500008       1.59542716    
  0.398000002       1.78172779    
  0.398499995       1.96462548    
  0.398999989       2.14405751    
  0.399500012       2.31996465    
  0.400000006       2.49229264    
  0.400500000       2.66099095    
  0.400999993       2.82601190    
  0.401499987       2.98731303    
  0.402000010       3.14485645    
  0.402500004       3.29860759    
  0.402999997       3.44853616    
  0.403499991       3.59461594    
  0.404000014       3.73682404    
  0.404500008       3.87514234    
  0.405000001       4.00955582    
  0.405499995       4.14005327    
  0.405999988       4.26662779    
  0.406500012       4.38927603    
  0.407000005       4.50799799    
  0.407499999       4.62279749    
  0.407999992       4.73368120    
  0.408499986       4.84065962    
  0.409000009       4.94374514    
  0.409500003       5.04295444    
  0.409999996       5.13830662    
  0.410499990       5.22982502    
  0.411000013       5.31753349    
  0.411500007       5.40145922    
  0.412000000       5.48163366    
  0.412499994       5.55808830    
  0.412999988       5.63085985    
  0.413500011       5.69998503    
  0.414000005       5.76550436    
  0.414499998       5.82746077    
  0.414999992       5.88589764    
  0.415499985       5.94086123    
  0.416000009       5.99239922    
  0.416500002       6.04056215    
  0.416999996       6.08540106    
  0.417499989       6.12696886    
  0.418000013       6.16532087    
  0.418500006       6.20051336    
  0.419000000       6.23260260    
  0.419499993       6.26164722    
  0.419999987       6.28770542    
  0.420500010       6.31083727    
  0.421000004       6.33110476    
  0.421499997       6.34856749    
  0.421999991       6.36328888    
  0.422500014       6.37532949    
  0.423000008       6.38475227    
  0.423500001       6.39161921    
  0.423999995       6.39599419    
  0.424499989       6.39794016    
  0.425000012       6.39752054    
  0.425500005       6.39479876    
  0.425999999       6.38983727    
  0.426499993       6.38269901    
  0.426999986       6.37344694    
  0.427500010       6.36214256    
  0.428000003       6.34884691    