   0.00000000       0.00000000    
   5.00000024E-04   0.00000000    
   1.00000005E-03   0.00000000    
   1.50000001E-03   1.80933962E-14
   2.00000009E-03   1.12534527E-13
   2.49999994E-03   3.81756286E-13
   3.00000003E-03   9.11808714E-13
   3.50000011E-03   1.64619056E-12
   4.00000019E-03   2.16923614E-12
   4.49999981E-03   1.41953615E-12
   4.99999989E-03  -2.61947755E-12
   5.49999997E-03  -1.31741475E-11
   6.00000005E-03  -3.47793842E-11
   6.50000013E-03  -7.31102470E-11
   7.00000022E-03  -1.34444816E-10
   7.49999983E-03  -2.24688365E-10
   8.00000038E-03  -3.47945645E-10
   8.50000046E-03  -5.04702391E-10
   8.99999961E-03  -6.89768520E-10
   9.49999969E-03  -8.90226670E-10
   9.99999978E-03  -1.08371156E-09
   1.04999999E-02  -1.23740429E-09
   1.09999999E-02  -1.30814470E-09
   1.15000000E-02  -1.24403066E-09
   1.20000001E-02  -9.87788296E-10
   1.25000002E-02  -4.82043572E-10
   1.30000003E-02   3.23577359E-10
   1.35000004E-02   1.46383261E-09
   1.40000004E-02   2.94831559E-09
   1.44999996E-02   4.75181849E-09
   1.49999997E-02   6.80567425E-09
   1.54999997E-02   8.99128683E-09
   1.60000008E-02   1.11371330E-08
   1.64999999E-02   1.30204398E-08
   1.70000009E-02   1.43745096E-08
   1.75000001E-02   1.49023531E-08
   1.79999992E-02   1.42967336E-08
   1.85000002E-02   1.22661987E-08
   1.89999994E-02   8.56587157E-09
   1.95000004E-02   3.03131031E-09
   1.99999996E-02  -4.38722081E-09
   2.05000006E-02  -1.35929383E-08
   2.09999997E-02  -2.43166003E-08
   2.15000007E-02  -3.60998698E-08
   2.19999999E-02  -4.82912696E-08
   2.25000009E-02  -6.00574026E-08
   2.30000000E-02  -7.04113958E-08
   2.34999992E-02  -7.82593190E-08
   2.40000002E-02  -8.24638491E-08
   2.44999994E-02  -8.19232540E-08
   2.50000004E-02  -7.56615606E-08
   2.54999995E-02  -6.29251460E-08
   2.60000005E-02  -4.32787530E-08
   2.64999997E-02  -1.66936633E-08
   2.70000007E-02   1.63800173E-08
   2.74999999E-02   5.49648043E-08
   2.80000009E-02   9.75380985E-08
   2.85000000E-02   1.42051107E-07
   2.89999992E-02   1.85988213E-07
   2.95000002E-02   2.26467748E-07
   2.99999993E-02   2.60382706E-07
   3.05000003E-02   2.84576231E-07
   3.09999995E-02   2.96044391E-07
   3.15000005E-02   2.92154397E-07
   3.20000015E-02   2.70865399E-07
   3.24999988E-02   2.30937545E-07
   3.29999998E-02   1.72111868E-07
   3.35000008E-02   9.52468824E-08
   3.40000018E-02   2.39742848E-09
   3.44999991E-02  -1.03175871E-07
   3.50000001E-02  -2.17073875E-07
   3.55000012E-02  -3.33906769E-07
   3.59999985E-02  -4.47518943E-07
   3.64999995E-02  -5.51285666E-07
   3.70000005E-02  -6.38466076E-07
   3.75000015E-02  -7.02595969E-07
   3.79999988E-02  -7.37897949E-07
   3.84999998E-02  -7.39683628E-07
   3.90000008E-02  -7.04720435E-07
   3.95000018E-02  -6.31538910E-07
   3.99999991E-02  -5.20654567E-07
   4.05000001E-02  -3.74684475E-07
   4.10000011E-02  -1.98344111E-07
   4.14999984E-02   1.68214931E-09
   4.19999994E-02   2.16998544E-07
   4.25000004E-02   4.37872927E-07
   4.30000015E-02   6.53713357E-07
   4.34999987E-02   8.53621373E-07
   4.39999998E-02   1.02699039E-06
   4.45000008E-02   1.16411422E-06
   4.50000018E-02   1.25676763E-06
   4.54999991E-02   1.29872285E-06
   4.60000001E-02   1.28616080E-06
   4.65000011E-02   1.21795586E-06
   4.69999984E-02   1.09580492E-06
   4.74999994E-02   9.24188612E-07
   4.80000004E-02   7.10166773E-07
   4.85000014E-02   4.63009485E-07
   4.89999987E-02   1.93693012E-07
   4.94999997E-02  -8.57206572E-08
   5.00000007E-02  -3.62769583E-07
   5.05000018E-02  -6.25311998E-07
   5.09999990E-02  -8.62219622E-07
   5.15000001E-02  -1.06400717E-06
   5.20000011E-02  -1.22335223E-06
   5.24999984E-02  -1.33546416E-06
   5.29999994E-02  -1.39828092E-06
   5.35000004E-02  -1.41247722E-06
   5.40000014E-02  -1.38127791E-06
   5.44999987E-02  -1.31009881E-06
   5.49999997E-02  -1.20603090E-06
   5.55000007E-02  -1.07721473E-06
   5.60000017E-02  -9.32145895E-07
   5.64999990E-02  -7.78971128E-07
   5.70000000E-02  -6.24826839E-07
   5.75000010E-02  -4.75280018E-07
   5.79999983E-02  -3.33913647E-07
   5.84999993E-02  -2.02099002E-07
   5.90000004E-02  -7.89799159E-08
   5.95000014E-02   3.83261423E-08
   5.99999987E-02   1.54314051E-07
   6.04999997E-02   2.74501275E-07
   6.10000007E-02   4.04686546E-07
   6.15000017E-02   5.50134018E-07
   6.19999990E-02   7.14738519E-07
   6.25000000E-02   9.00246050E-07
   6.30000010E-02   1.10560438E-06
   6.35000020E-02   1.32651166E-06
   6.40000030E-02   1.55521548E-06
   6.44999966E-02   1.78059975E-06
   6.49999976E-02   1.98859243E-06
   6.54999986E-02   2.16287094E-06
   6.59999996E-02   2.28585304E-06
   6.65000007E-02   2.33990841E-06
   6.70000017E-02   2.30873366E-06
   6.75000027E-02   2.17877982E-06
   6.80000037E-02   1.94064660E-06
   6.84999973E-02   1.59032186E-06
   6.89999983E-02   1.13017620E-06
   6.94999993E-02   5.69598626E-07
   7.00000003E-02  -7.47839479E-08
   7.05000013E-02  -7.79372897E-07
   7.10000023E-02  -1.51435700E-06
   7.15000033E-02  -2.24496648E-06
   7.19999969E-02  -2.93315634E-06
   7.24999979E-02  -3.53966993E-06
   7.29999989E-02  -4.02633032E-06
   7.34999999E-02  -4.35846687E-06
   7.40000010E-02  -4.50727885E-06
   7.45000020E-02  -4.45202886E-06
   7.50000030E-02  -4.18186573E-06
   7.54999965E-02  -3.69714940E-06
   7.59999976E-02  -3.01018076E-06
   7.64999986E-02  -2.14522197E-06
   7.69999996E-02  -1.13778151E-06
   7.75000006E-02  -3.31758017E-08
   7.80000016E-02   1.11559882E-06
   7.85000026E-02   2.25056283E-06
   7.90000036E-02   3.31188949E-06
   7.94999972E-02   4.24130076E-06
   7.99999982E-02   4.98551572E-06
   8.04999992E-02   5.49952574E-06
   8.10000002E-02   5.74951309E-06
   8.15000013E-02   5.71517921E-06
   8.20000023E-02   5.39133634E-06
   8.25000033E-02   4.78861966E-06
   8.29999968E-02   3.93326400E-06
   8.34999979E-02   2.86591126E-06
   8.39999989E-02   1.63949619E-06
   8.44999999E-02   3.16348917E-07
   8.50000009E-02  -1.03537991E-06
   8.55000019E-02  -2.34569598E-06
   8.60000029E-02  -3.54693839E-06
   8.64999965E-02  -4.57784836E-06
   8.69999975E-02  -5.38731911E-06
   8.74999985E-02  -5.93751565E-06
   8.79999995E-02  -6.20616947E-06
   8.85000005E-02  -6.18787544E-06
   8.90000015E-02  -5.89430510E-06
   8.95000026E-02  -5.35325535E-06
   9.00000036E-02  -4.60661022E-06
   9.04999971E-02  -3.70732459E-06
   9.09999982E-02  -2.71562931E-06
   9.14999992E-02  -1.69467057E-06
   9.20000002E-02  -7.05945070E-07
   9.25000012E-02   1.95229461E-07
   9.30000022E-02   9.63797788E-07
   9.35000032E-02   1.56838166E-06
   9.39999968E-02   1.99367082E-06
   9.44999978E-02   2.24168411E-06
   9.49999988E-02   2.33162723E-06
   9.54999998E-02   2.29850252E-06
   9.60000008E-02   2.19031404E-06
   9.65000018E-02   2.06420623E-06
   9.70000029E-02   1.98163184E-06
   9.74999964E-02   2.00297109E-06
   9.79999974E-02   2.18194714E-06
   9.84999985E-02   2.56018620E-06
   9.89999995E-02   3.16245655E-06
   9.95000005E-02   3.99287364E-06
  0.100000001       5.03248930E-06
  0.100500003       6.23846108E-06
  0.101000004       7.54507209E-06
  0.101499997       8.86649104E-06
  0.101999998       1.01013920E-05
  0.102499999       1.11390718E-05
  0.103000000       1.18668149E-05
  0.103500001       1.21780104E-05
  0.104000002       1.19806364E-05
  0.104500003       1.12053422E-05
  0.104999997       9.81280573E-06
  0.105499998       7.79955371E-06
  0.105999999       5.20194590E-06
  0.106500000       2.09768564E-06
  0.107000001      -1.39502504E-06
  0.107500002      -5.12134147E-06
  0.108000003      -8.89608691E-06
  0.108499996      -1.25125953E-05
  0.108999997      -1.57535942E-05
  0.109499998      -1.84035889E-05
  0.109999999      -2.02620649E-05
  0.110500000      -2.11566839E-05
  0.111000001      -2.09556420E-05
  0.111500002      -1.95786415E-05
  0.112000003      -1.70051389E-05
  0.112499997      -1.32799205E-05
  0.112999998      -8.51465666E-06
  0.113499999      -2.88606725E-06
  0.114000000       3.37024267E-06
  0.114500001       9.96989638E-06
  0.115000002       1.65929177E-05
  0.115500003       2.29001780E-05
  0.115999997       2.85516398E-05
  0.116499998       3.32261588E-05
  0.116999999       3.66405038E-05
  0.117500000       3.85681997E-05
  0.118000001       3.88550798E-05
  0.118500002       3.74322954E-05
  0.119000003       3.43248830E-05
  0.119499996       2.96549533E-05
  0.119999997       2.36401265E-05
  0.120499998       1.65863039E-05
  0.120999999       8.87423266E-06
  0.121500000       9.43018108E-07
  0.122000001      -6.73279783E-06
  0.122500002      -1.36672215E-05
  0.123000003      -1.93895357E-05
  0.123499997      -2.34709751E-05
  0.123999998      -2.55506784E-05
  0.124499999      -2.53580638E-05
  0.125000000      -2.27325127E-05
  0.125499994      -1.76357753E-05
  0.126000002      -1.01599226E-05
  0.126499996      -5.27788814E-07
  0.127000004       1.09145076E-05
  0.127499998       2.37116856E-05
  0.128000006       3.73193325E-05
  0.128500000       5.11309008E-05
  0.128999993       6.45078835E-05
  0.129500002       7.68137834E-05
  0.129999995       8.74492325E-05
  0.130500004       9.58846213E-05
  0.130999997       1.01693608E-04
  0.131500006       1.04577724E-04
  0.131999999       1.04388273E-04
  0.132499993       1.01140227E-04
  0.133000001       9.50160029E-05
  0.133499995       8.63615496E-05
  0.134000003       7.56754089E-05
  0.134499997       6.35858451E-05
  0.135000005       5.08217017E-05
  0.135499999       3.81792597E-05
  0.136000007       2.64813116E-05
  0.136500001       1.65357451E-05
  0.136999995       9.09215942E-06
  0.137500003       4.80645440E-06
  0.137999997       4.19790058E-06
  0.138500005       7.62755326E-06
  0.138999999       1.52717312E-05
  0.139500007       2.71075241E-05
  0.140000001       4.29228348E-05
  0.140499994       6.23094384E-05
  0.141000003       8.46931434E-05
  0.141499996       1.09357861E-04
  0.142000005       1.35482507E-04
  0.142499998       1.62183904E-04
  0.143000007       1.88562000E-04
  0.143500000       2.13752093E-04
  0.143999994       2.36967404E-04
  0.144500002       2.57545093E-04
  0.144999996       2.74987106E-04
  0.145500004       2.88985204E-04
  0.145999998       2.99440639E-04
  0.146500006       3.06478119E-04
  0.147000000       3.10432952E-04
  0.147499993       3.11852811E-04
  0.148000002       3.11455980E-04
  0.148499995       3.10104311E-04
  0.149000004       3.08760704E-04
  0.149499997       3.08435672E-04
  0.150000006       3.10139672E-04
  0.150500000       3.14819772E-04
  0.150999993       3.23328655E-04
  0.151500002       3.36363388E-04
  0.151999995       3.54438846E-04
  0.152500004       3.77849326E-04
  0.152999997       4.06669569E-04
  0.153500006       4.40737029E-04
  0.153999999       4.79666254E-04
  0.154499993       5.22879884E-04
  0.155000001       5.69634547E-04
  0.155499995       6.19047496E-04
  0.156000003       6.70194742E-04
  0.156499997       7.22116441E-04
  0.157000005       7.73894659E-04
  0.157499999       8.24705814E-04
  0.158000007       8.73891986E-04
  0.158500001       9.20968771E-04
  0.158999994       9.65689600E-04
  0.159500003       1.00804167E-03
  0.159999996       1.04830193E-03
  0.160500005       1.08696520E-03
  0.160999998       1.12478912E-03
  0.161500007       1.16271526E-03
  0.162000000       1.20186643E-03
  0.162499994       1.24347419E-03
  0.163000003       1.28879526E-03
  0.163499996       1.33912091E-03
  0.164000005       1.39566802E-03
  0.164499998       1.45950285E-03
  0.165000007       1.53152971E-03
  0.165500000       1.61244092E-03
  0.165999994       1.70265674E-03
  0.166500002       1.80235843E-03
  0.166999996       1.91142189E-03
  0.167500004       2.02950928E-03
  0.167999998       2.15604017E-03
  0.168500006       2.29024165E-03
  0.169000000       2.43117381E-03
  0.169499993       2.57785688E-03
  0.170000002       2.72926805E-03
  0.170499995       2.88443058E-03
  0.171000004       3.04249092E-03
  0.171499997       3.20280716E-03
  0.172000006       3.36483540E-03
  0.172499999       3.52843059E-03
  0.172999993       3.69362417E-03
  0.173500001       3.86080099E-03
  0.173999995       4.03062953E-03
  0.174500003       4.20400640E-03
  0.174999997       4.38215584E-03
  0.175500005       4.56644269E-03
  0.175999999       4.75838315E-03
  0.176499993       4.95958608E-03
  0.177000001       5.17168827E-03
  0.177499995       5.39625017E-03
  0.178000003       5.63481869E-03
  0.178499997       5.88863390E-03
  0.179000005       6.15874818E-03
  0.179499999       6.44624932E-03
  0.180000007       6.75162347E-03
  0.180500001       7.07516866E-03
  0.180999994       7.41704600E-03
  0.181500003       7.77713303E-03
  0.181999996       8.15504882E-03
  0.182500005       8.55032168E-03
  0.182999998       8.96245521E-03
  0.183500007       9.39084031E-03
  0.184000000       9.83497314E-03
  0.184499994       1.02942353E-02
  0.185000002       1.07684471E-02
  0.185499996       1.12573849E-02
  0.186000004       1.17612621E-02
  0.186499998       1.22804902E-02
  0.187000006       1.28156720E-02
  0.187500000       1.33675560E-02
  0.187999994       1.39376959E-02
  0.188500002       1.45271579E-02
  0.188999996       1.51378056E-02
  0.189500004       1.57710575E-02
  0.189999998       1.64289419E-02
  0.190500006       1.71134118E-02
  0.191000000       1.78262796E-02
  0.191499993       1.85692273E-02
  0.192000002       1.93439368E-02
  0.192499995       2.01519895E-02
  0.193000004       2.09945794E-02
  0.193499997       2.18731295E-02
  0.194000006       2.27883905E-02
  0.194499999       2.37412173E-02
  0.194999993       2.47321799E-02
  0.195500001       2.57619545E-02
  0.195999995       2.68310513E-02
  0.196500003       2.79388912E-02
  0.196999997       2.90868375E-02
  0.197500005       3.02748606E-02
  0.197999999       3.15040872E-02
  0.198500007       3.27740386E-02
  0.199000001       3.40864956E-02
  0.199499995       3.54424380E-02
  0.200000003       3.68430726E-02
  0.200499997       3.82895619E-02
  0.201000005       3.97832841E-02
  0.201499999       4.13263626E-02
  0.202000007       4.29205075E-02
  0.202500001       4.45674062E-02
  0.202999994       4.62698005E-02
  0.203500003       4.80292812E-02
  0.203999996       4.98485826E-02
  0.204500005       5.17290607E-02
  0.204999998       5.36732711E-02
  0.205500007       5.56828007E-02
  0.206000000       5.77572770E-02
  0.206499994       5.99015057E-02
  0.207000002       6.21149577E-02
  0.207499996       6.43993542E-02
  0.208000004       6.67556599E-02
  0.208499998       6.91853240E-02
  0.209000006       7.16891512E-02
  0.209500000       7.42692500E-02
  0.209999993       7.69259334E-02
  0.210500002       7.96607286E-02
  0.210999995       8.24751630E-02
  0.211500004       8.53701159E-02
  0.211999997       8.83469582E-02
  0.212500006       9.14078206E-02
  0.213000000       9.45549086E-02
  0.213499993       9.77915302E-02
  0.214000002      0.101119004    
  0.214499995      0.104538538    
  0.215000004      0.108053491    
  0.215499997      0.111667782    
  0.216000006      0.115383245    
  0.216499999      0.119202510    
  0.216999993      0.123128995    
  0.217500001      0.127163246    
  0.217999995      0.131309450    
  0.218500003      0.135567933    
  0.218999997      0.139938816    
  0.219500005      0.144427165    
  0.219999999      0.149032801    
  0.220500007      0.153756335    
  0.221000001      0.158598527    
  0.221499994      0.163558587    
  0.222000003      0.168641359    
  0.222499996      0.173841342    
  0.223000005      0.179162934    
  0.223499998      0.184607103    
  0.224000007      0.190169275    
  0.224500000      0.195854619    
  0.224999994      0.201659709    
  0.225500003      0.207584977    
  0.225999996      0.213634625    
  0.226500005      0.219808683    
  0.226999998      0.226107702    
  0.227500007      0.232531741    
  0.228000000      0.239082173    
  0.228499994      0.245762065    
  0.229000002      0.252571642    
  0.229499996      0.259516478    
  0.230000004      0.266598046    
  0.230499998      0.273814678    
  0.231000006      0.281169802    
  0.231500000      0.288660288    
  0.231999993      0.296304405    
  0.232500002      0.304082066    
  0.232999995      0.312002838    
  0.233500004      0.320063829    
  0.233999997      0.328262478    
  0.234500006      0.336600453    
  0.234999999      0.345068753    
  0.235499993      0.353669792    
  0.236000001      0.362397105    
  0.236499995      0.371251881    
  0.237000003      0.380211651    
  0.237499997      0.389292508    
  0.238000005      0.398479611    
  0.238499999      0.407768101    
  0.238999993      0.417162389    
  0.239500001      0.426646709    
  0.239999995      0.436226398    
  0.240500003      0.445896327    
  0.240999997      0.455637068    
  0.241500005      0.465478837    
  0.241999999      0.475390494    
  0.242500007      0.485383540    
  0.243000001      0.495444089    
  0.243499994      0.505586863    
  0.244000003      0.515794694    
  0.244499996      0.526071906    
  0.245000005      0.536408007    
  0.245499998      0.546798944    
  0.246000007      0.557261884    
  0.246500000      0.567759275    
  0.246999994      0.578300595    
  0.247500002      0.588875115    
  0.247999996      0.599477232    
  0.248500004      0.610080600    
  0.248999998      0.620695531    
  0.249500006      0.631276846    
  0.250000000      0.641836822    
  0.250499994      0.652370811    
  0.250999987      0.662847340    
  0.251500010      0.673252404    
  0.252000004      0.683576345    
  0.252499998      0.693786263    
  0.252999991      0.703886390    
  0.253500015      0.713867068    
  0.254000008      0.723699808    
  0.254500002      0.733376801    
  0.254999995      0.742882311    
  0.255499989      0.752200902    
  0.256000012      0.761348903    
  0.256500006      0.770300090    
  0.256999999      0.779055536    
  0.257499993      0.787590981    
  0.257999986      0.795893312    
  0.258500010      0.803936481    
  0.259000003      0.811763108    
  0.259499997      0.819296002    
  0.259999990      0.826539218    
  0.260500014      0.833480179    
  0.261000007      0.840079486    
  0.261500001      0.846355855    
  0.261999995      0.852256298    
  0.262499988      0.857754886    
  0.263000011      0.862871766    
  0.263500005      0.867529690    
  0.263999999      0.871765494    
  0.264499992      0.875501394    
  0.264999986      0.878742933    
  0.265500009      0.881442785    
  0.266000003      0.883552372    
  0.266499996      0.885084331    
  0.266999990      0.886008382    
  0.267500013      0.886311054    
  0.268000007      0.885948300    
  0.268500000      0.884879410    
  0.268999994      0.883117735    
  0.269499987      0.880604744    
  0.270000011      0.877369106    
  0.270500004      0.873337209    
  0.270999998      0.868516266    
  0.271499991      0.862918556    
  0.272000015      0.856501222    
  0.272500008      0.849225402    
  0.273000002      0.841118217    
  0.273499995      0.832142651    
  0.273999989      0.822278142    
  0.274500012      0.811498940    
  0.275000006      0.799793541    
  0.275500000      0.787155867    
  0.275999993      0.773551464    
  0.276499987      0.758890688    
  0.277000010      0.743169904    
  0.277500004      0.726400912    
  0.277999997      0.708490670    
  0.278499991      0.689423800    
  0.279000014      0.669270098    
  0.279500008      0.647804618    
  0.280000001      0.625242114    
  0.280499995      0.601356626    
  0.280999988      0.576279283    
  0.281500012      0.549896181    
  0.282000005      0.522335708    
  0.282499999      0.493392885    
  0.282999992      0.463178426    
  0.283499986      0.431648195    
  0.284000009      0.398761243    
  0.284500003      0.364564538    
  0.284999996      0.328983754    
  0.285499990      0.292040050    
  0.286000013      0.253772259    
  0.286500007      0.214004233    
  0.287000000      0.172913268    
  0.287499994      0.130398646    
  0.287999988       8.65567774E-02
  0.288500011       4.12149206E-02
  0.289000005      -5.60969440E-03
  0.289499998      -5.38272560E-02
  0.289999992     -0.103505544    
  0.290499985     -0.154542267    
  0.291000009     -0.207119569    
  0.291500002     -0.261016101    
  0.291999996     -0.316455960    
  0.292499989     -0.373304844    
  0.293000013     -0.431571305    
  0.293500006     -0.491262287    
  0.294000000     -0.552366316    
  0.294499993     -0.614862144    
  0.294999987     -0.678666532    
  0.295500010     -0.743919015    
  0.296000004     -0.810477316    
  0.296499997     -0.878265142    
  0.296999991     -0.947412252    
  0.297500014      -1.01785052    
  0.298000008      -1.08951879    
  0.298500001      -1.16238165    
  0.298999995      -1.23654389    
  0.299499989      -1.31180978    
  0.300000012      -1.38827074    
  0.300500005      -1.46589589    
  0.300999999      -1.54455435    
  0.301499993      -1.62430930    
  0.301999986      -1.70508480    
  0.302500010      -1.78686583    
  0.303000003      -1.86941957    
  0.303499997      -1.95296335    
  0.303999990      -2.03715444    
  0.304500014      -2.12221599    
  0.305000007      -2.20795703    
  0.305500001      -2.29430795    
  0.305999994      -2.38110781    
  0.306499988      -2.46839309    
  0.307000011      -2.55597472    
  0.307500005      -2.64398265    
  0.307999998      -2.73232579    
  0.308499992      -2.82085252    
  0.308999985      -2.90942121    
  0.309500009      -2.99800396    
  0.310000002      -3.08674932    
  0.310499996      -3.17545199    
  0.310999990      -3.26404142    
  0.311500013      -3.35232592    
  0.312000006      -3.44029713    
  0.312500000      -3.52803016    
  0.312999994      -3.61541367    
  0.313499987      -3.70220923    
  0.314000010      -3.78855205    
  0.314500004      -3.87406731    
  0.314999998      -3.95869637    
  0.315499991      -4.04243422    
  0.316000015      -4.12529802    
  0.316500008      -4.20687675    
  0.317000002      -4.28725290    
  0.317499995      -4.36624813    
  0.317999989      -4.44403648    
  0.318500012      -4.52013636    
  0.319000006      -4.59451389    
  0.319499999      -4.66673803    
  0.319999993      -4.73715210    
  0.320499986      -4.80552769    
  0.321000010      -4.87173605    
  0.321500003      -4.93560314    
  0.321999997      -4.99705458    
  0.322499990      -5.05616045    
  0.323000014      -5.11255884    
  0.323500007      -5.16634417    
  0.324000001      -5.21740532    
  0.324499995      -5.26551390    
  0.324999988      -5.31095219    
  0.325500011      -5.35328674    
  0.326000005      -5.39255142    
  0.326499999      -5.42862368    
  0.326999992      -5.46142387    
  0.327499986      -5.49077272    
  0.328000009      -5.51667738    
  0.328500003      -5.53891230    
  0.328999996      -5.55727720    
  0.329499990      -5.57171631    
  0.330000013      -5.58229160    
  0.330500007      -5.58869743    
  0.331000000      -5.59077549    
  0.331499994      -5.58859444    
  0.331999987      -5.58178234    
  0.332500011      -5.57056379    
  0.333000004      -5.55441380    
  0.333499998      -5.53361082    
  0.333999991      -5.50802994    
  0.334500015      -5.47761869    
  0.335000008      -5.44229126    
  0.335500002      -5.40207577    
  0.335999995      -5.35688972    
  0.336499989      -5.30664539    
  0.337000012      -5.25151348    
  0.337500006      -5.19149256    
  0.338000000      -5.12634945    
  0.338499993      -5.05604887    
  0.338999987      -4.98069668    
  0.339500010      -4.90032673    
  0.340000004      -4.81477451    
  0.340499997      -4.72391653    
  0.340999991      -4.62793827    
  0.341500014      -4.52651691    
  0.342000008      -4.41982126    
  0.342500001      -4.30764532    
  0.342999995      -4.18993950    
  0.343499988      -4.06709242    
  0.344000012      -3.93867350    
  0.344500005      -3.80471563    
  0.344999999      -3.66556573    
  0.345499992      -3.52078152    
  0.345999986      -3.37072349    
  0.346500009      -3.21535945    
  0.347000003      -3.05498910    
  0.347499996      -2.88947701    
  0.347999990      -2.71923804    
  0.348500013      -2.54392624    
  0.349000007      -2.36388445    
  0.349500000      -2.17939401    
  0.349999994      -1.99034727    
  0.350499988      -1.79700017    
  0.351000011      -1.59928000    
  0.351500005      -1.39749515    
  0.351999998      -1.19181883    
  0.352499992     -0.982062697    
  0.352999985     -0.768603325    
  0.353500009     -0.551403403    
  0.354000002     -0.330780447    
  0.354499996     -0.106695019    
  0.354999989      0.120877616    
  0.355500013      0.351719856    
  0.356000006      0.585597277    
  0.356500000      0.822456896    
  0.356999993       1.06198251    
  0.357499987       1.30396640    
  0.358000010       1.54834819    
  0.358500004       1.79476380    
  0.358999997       2.04337430    
  0.359499991       2.29345083    
  0.360000014       2.54499912    
  0.360500008       2.79768372    
  0.361000001       3.05142045    
  0.361499995       3.30570793    
  0.361999989       3.56033969    
  0.362500012       3.81522846    
  0.363000005       4.07003069    
  0.363499999       4.32467222    
  0.363999993       4.57866478    
  0.364499986       4.83159637    
  0.365000010       5.08366013    
  0.365500003       5.33424759    
  0.365999997       5.58321381    
  0.366499990       5.83039045    
  0.367000014       6.07534933    
  0.367500007       6.31794500    
  0.368000001       6.55803633    
  0.368499994       6.79528761    
  0.368999988       7.02905893    
  0.369500011       7.25973463    
  0.370000005       7.48645830    
  0.370499998       7.70920897    
  0.370999992       7.92797184    
  0.371499985       8.14227486    
  0.372000009       8.35195827    
  0.372500002       8.55650234    
  0.372999996       8.75581646    
  0.373499990       8.94986916    
  0.374000013       9.13829899    
  0.374500006       9.32076836    
  0.375000000       9.49711990    
  0.375499994       9.66700363    
  0.375999987       9.83009243    
  0.376500010       9.98620796    
  0.377000004       10.1352549    
  0.377499998       10.2765675    
  0.377999991       10.4101152    
  0.378500015       10.5358591    
  0.379000008       10.6531820    
  0.379500002       10.7620811    
  0.379999995       10.8619947    
  0.380499989       10.9535637    
  0.381000012       11.0357170    
  0.381500006       11.1085310    
  0.381999999       11.1720438    
  0.382499993       11.2260504    
  0.382999986       11.2701683    
  0.383500010       11.3047447    
  0.384000003       11.3296213    
  0.384499997       11.3446999    
  0.384999990       11.3494473    
  0.385500014       11.3441687    
  0.386000007       11.3287506    
  0.386500001       11.3030767    
  0.386999995       11.2673616    
  0.387499988       11.2211142    
  0.388000011       11.1645947    
  0.388500005       11.0974016    
  0.388999999       11.0196600    
  0.389499992       10.9314852    
  0.389999986       10.8323698    
  0.390500009       10.7228394    
  0.391000003       10.6022539    
  0.391499996       10.4710007    
  0.391999990       10.3293705    
  0.392500013       10.1765394    
  0.393000007       10.0137901    
  0.393500000       9.83952141    
  0.393999994       9.65518951    
  0.394499987       9.46047974    
  0.395000011       9.25528240    
  0.395500004       9.04030228    
  0.395999998       8.81532288    
  0.396499991       8.58112335    
  0.397000015       8.33736229    
  0.397500008       8.08422661    
  0.398000002       7.82244873    
  0.398499995       7.55203390    
  0.398999989       7.27323771    
  0.399500012       6.98616409    
  0.400000006       6.69138813    
  0.400500000       6.38834572    
  0.400999993       6.07834291    
  0.401499987       5.76023626    
  0.402000010       5.43518400    
  0.402500004       5.10338306    
  0.402999997       4.76468325    
  0.403499991       4.41918468    
  0.404000014       4.06753778    
  0.404500008       3.71017337    
  0.405000001       3.34746671    
  0.405499995       2.97988153    
  0.405999988       2.60692191    
  0.406500012       2.22945166    
  0.407000005       1.84867990    
  0.407499999       1.46362758    
  0.407999992       1.07585692    
  0.408499986      0.685459495    
  0.409000009      0.293173134    
  0.409500003     -0.101290584    
  0.409999996     -0.497356087    
  0.410499990     -0.893875062    
  0.411000013      -1.29114318    
  0.411500007      -1.68860233    
  0.412000000      -2.08502889    
  0.412499994      -2.48064780    
  0.412999988      -2.87567282    
  0.413500011      -3.26923776    
  0.414000005      -3.66015339    
  0.414499998      -4.04904079    
  0.414999992      -4.43504429    
  0.415499985      -4.81809616    
  0.416000009      -5.19832182    
  0.416500002      -5.57413721    
  0.416999996      -5.94599628    
  0.417499989      -6.31355572    
  0.418000013      -6.67554951    
  0.418500006      -7.03236341    
  0.419000000      -7.38330507    
  0.419499993      -7.72804642    
  0.419999987      -8.06615067    
  0.420500010      -8.39700222    
  0.421000004      -8.72055531    
  0.421499997      -9.03609371    
  0.421999991      -9.34341335    
  0.422500014      -9.64165020    
  0.423000008      -9.93086147    
  0.423500001      -10.2106943    
  0.423999995      -10.4801683    
  0.424499989      -10.7390366    
  0.425000012      -10.9876022    
  0.425500005      -11.2249727    
  0.425999999      -11.4508886    
  0.426499993      -11.6649122    
  0.426999986      -11.8671398    
  0.427500010      -12.0573158    
  0.428000003      -12.2350674    