   0.00000000       0.00000000    
   5.00000024E-04   0.00000000    
   1.00000005E-03   0.00000000    
   1.50000001E-03   0.00000000    
   2.00000009E-03   4.52334953E-21
   2.49999994E-03   3.71803339E-20
   3.00000003E-03   1.65276399E-19
   3.50000011E-03   5.21324687E-19
   4.00000019E-03   1.28892048E-18
   4.49999981E-03   2.59882550E-18
   4.99999989E-03   4.26361479E-18
   5.49999997E-03   5.27353449E-18
   6.00000005E-03   2.98991691E-18
   6.50000013E-03  -7.98854640E-18
   7.00000022E-03  -3.72445747E-17
   7.49999983E-03  -1.00111810E-16
   8.00000038E-03  -2.19151154E-16
   8.50000046E-03  -4.25176896E-16
   8.99999961E-03  -7.57378268E-16
   9.49999969E-03  -1.26202170E-15
   9.99999978E-03  -1.98922194E-15
   1.04999999E-02  -2.98734989E-15
   1.09999999E-02  -4.29482889E-15
   1.15000000E-02  -5.92934456E-15
   1.20000001E-02  -7.87486785E-15
   1.25000002E-02  -1.00673381E-14
   1.30000003E-02  -1.23803191E-14
   1.35000004E-02  -1.46124059E-14
   1.40000004E-02  -1.64785330E-14
   1.44999996E-02  -1.76075822E-14
   1.49999997E-02  -1.75486761E-14
   1.54999997E-02  -1.57883519E-14
   1.60000008E-02  -1.17802056E-14
   1.64999999E-02  -4.98777680E-15
   1.70000009E-02   5.05976232E-15
   1.75000001E-02   1.87009289E-14
   1.79999992E-02   3.60676861E-14
   1.85000002E-02   5.70086242E-14
   1.89999994E-02   8.10161129E-14
   1.95000004E-02   1.07165077E-13
   1.99999996E-02   1.34071858E-13
   2.05000006E-02   1.59881833E-13
   2.09999997E-02   1.82293579E-13
   2.15000007E-02   1.98626177E-13
   2.19999999E-02   2.05933808E-13
   2.25000009E-02   2.01168617E-13
   2.30000000E-02   1.81389070E-13
   2.34999992E-02   1.44006673E-13
   2.40000002E-02   8.70594422E-14
   2.44999994E-02   9.49626001E-15
   2.50000004E-02  -8.85477672E-14
   2.54999995E-02  -2.05507161E-13
   2.60000005E-02  -3.38197867E-13
   2.64999997E-02  -4.81708261E-13
   2.70000007E-02  -6.29392046E-13
   2.74999999E-02  -7.72980909E-13
   2.80000009E-02  -9.02828485E-13
   2.85000000E-02  -1.00829154E-12
   2.89999992E-02  -1.07824188E-12
   2.95000002E-02  -1.10169512E-12
   2.99999993E-02  -1.06853144E-12
   3.05000003E-02  -9.70272040E-13
   3.09999995E-02  -8.00868486E-13
   3.15000005E-02  -5.57453931E-13
   3.20000015E-02  -2.41000769E-13
   3.24999988E-02   1.43168653E-13
   3.29999998E-02   5.85072572E-13
   3.35000008E-02   1.07000455E-12
   3.40000018E-02   1.57874798E-12
   3.44999991E-02   2.08809098E-12
   3.50000001E-02   2.57163995E-12
   3.55000012E-02   3.00092048E-12
   3.59999985E-02   3.34672437E-12
   3.64999995E-02   3.58064836E-12
   3.70000005E-02   3.67675074E-12
   3.75000015E-02   3.61323710E-12
   3.79999988E-02   3.37407402E-12
   3.84999998E-02   2.95043655E-12
   3.90000008E-02   2.34187821E-12
   3.95000018E-02   1.55713973E-12
   3.99999991E-02   6.14516413E-13
   4.05000001E-02  -4.58270195E-13
   4.10000011E-02  -1.62472824E-12
   4.14999984E-02  -2.84077189E-12
   4.19999994E-02  -4.05639541E-12
   4.25000004E-02  -5.21776893E-12
   4.30000015E-02  -6.26967445E-12
   4.34999987E-02  -7.15815124E-12
   4.39999998E-02  -7.83322279E-12
   4.45000008E-02  -8.25154702E-12
   4.50000018E-02  -8.37884276E-12
   4.54999991E-02  -8.19194625E-12
   4.60000001E-02  -7.68036849E-12
   4.65000011E-02  -6.84725150E-12
   4.69999984E-02  -5.70964500E-12
   4.74999994E-02  -4.29808706E-12
   4.80000004E-02  -2.65548217E-12
   4.85000014E-02  -8.35335327E-13
   4.89999987E-02   1.10056387E-12
   4.94999997E-02   3.08488586E-12
   5.00000007E-02   5.04777817E-12
   5.05000018E-02   6.91997848E-12
   5.09999990E-02   8.63585072E-12
   5.15000001E-02   1.01361671E-11
   5.20000011E-02   1.13704818E-11
   5.24999984E-02   1.22989587E-11
   5.29999994E-02   1.28935690E-11
   5.35000004E-02   1.31386091E-11
   5.40000014E-02   1.30305306E-11
   5.44999987E-02   1.25771329E-11
   5.49999997E-02   1.17962090E-11
   5.55000007E-02   1.07137788E-11
   5.60000017E-02   9.36204413E-12
   5.64999990E-02   7.77727188E-12
   5.70000000E-02   5.99775828E-12
   5.75000010E-02   4.06203803E-12
   5.79999983E-02   2.00749747E-12
   5.84999993E-02  -1.30520879E-13
   5.90000004E-02  -2.31906508E-12
   5.95000014E-02  -4.52735419E-12
   5.99999987E-02  -6.72606068E-12
   6.04999997E-02  -8.88618953E-12
   6.10000007E-02  -1.09776918E-11
   6.15000017E-02  -1.29680234E-11
   6.19999990E-02  -1.48208199E-11
   6.25000000E-02  -1.64949339E-11
   6.30000010E-02  -1.79439848E-11
   6.35000020E-02  -1.91166354E-11
   6.40000030E-02  -1.99576571E-11
   6.44999966E-02  -2.04098769E-11
   6.49999976E-02  -2.04169459E-11
   6.54999986E-02  -1.99268674E-11
   6.59999996E-02  -1.88960705E-11
   6.65000007E-02  -1.72938105E-11
   6.70000017E-02  -1.51065722E-11
   6.75000027E-02  -1.23421516E-11
   6.80000037E-02  -9.03303647E-12
   6.84999973E-02  -5.23875908E-12
   6.89999983E-02  -1.04690031E-12
   6.94999993E-02   3.42750264E-12
   7.00000003E-02   8.04430567E-12
   7.05000013E-02   1.26424114E-11
   7.10000023E-02   1.70456756E-11
   7.15000033E-02   2.10703503E-11
   7.19999969E-02   2.45337813E-11
   7.24999979E-02   2.72639255E-11
   7.29999989E-02   2.91091491E-11
   7.34999999E-02   2.99477942E-11
   7.40000010E-02   2.96968214E-11
   7.45000020E-02   2.83190277E-11
   7.50000030E-02   2.58282267E-11
   7.54999965E-02   2.22919599E-11
   7.59999976E-02   1.78314048E-11
   7.64999986E-02   1.26183040E-11
   7.69999996E-02   6.86889868E-12
   7.75000006E-02   8.35047689E-13
   7.80000016E-02  -5.20709691E-12
   7.85000026E-02  -1.09703418E-11
   7.90000036E-02  -1.61709448E-11
   7.94999972E-02  -2.05435773E-11
   7.99999982E-02  -2.38558843E-11
   8.04999992E-02  -2.59218133E-11
   8.10000002E-02  -2.66128595E-11
   8.15000013E-02  -2.58665259E-11
   8.20000023E-02  -2.36913995E-11
   8.25000033E-02  -2.01684381E-11
   8.29999968E-02  -1.54483232E-11
   8.34999979E-02  -9.74489066E-12
   8.39999989E-02  -3.32498092E-12
   8.44999999E-02   3.50480344E-12
   8.50000009E-02   1.04136751E-11
   8.55000019E-02   1.70637029E-11
   8.60000029E-02   2.31273074E-11
   8.64999965E-02   2.83041750E-11
   8.69999975E-02   3.23365813E-11
   8.74999985E-02   3.50221553E-11
   8.79999995E-02   3.62233542E-11
   8.85000005E-02   3.58730060E-11
   8.90000015E-02   3.39756938E-11
   8.95000026E-02   3.06047999E-11
   9.00000036E-02   2.58955947E-11
   9.04999971E-02   2.00347360E-11
   9.09999982E-02   1.32470476E-11
   9.14999992E-02   5.78045120E-12
   9.20000002E-02  -2.10981254E-12
   9.25000012E-02  -1.01765627E-11
   9.30000022E-02  -1.81945049E-11
   9.35000032E-02  -2.59714975E-11
   9.39999968E-02  -3.33563940E-11
   9.44999978E-02  -4.02428715E-11
   9.49999988E-02  -4.65689293E-11
   9.54999998E-02  -5.23120817E-11
   9.60000008E-02  -5.74806071E-11
   9.65000018E-02  -6.21015531E-11
   9.70000029E-02  -6.62064431E-11
   9.74999964E-02  -6.98159378E-11
   9.79999974E-02  -7.29246871E-11
   9.84999985E-02  -7.54879423E-11
   9.89999995E-02  -7.74111539E-11
   9.95000005E-02  -7.85437479E-11
  0.100000001      -7.86781265E-11
  0.100500003      -7.75543796E-11
  0.101000004      -7.48710260E-11
  0.101499997      -7.03013966E-11
  0.101999998      -6.35151515E-11
  0.102499999      -5.42035514E-11
  0.103000000      -4.21071823E-11
  0.103500001      -2.70441135E-11
  0.104000002      -8.93653988E-12
  0.104500003       1.21661925E-11
  0.104999997       3.60702614E-11
  0.105499998       6.24275354E-11
  0.105999999       9.07346975E-11
  0.106500000       1.20342333E-10
  0.107000001       1.50474397E-10
  0.107500002       1.80257712E-10
  0.108000003       2.08760703E-10
  0.108499996       2.35039682E-10
  0.108999997       2.58190469E-10
  0.109499998       2.77402878E-10
  0.109999999       2.92014385E-10
  0.110500000       3.01560360E-10
  0.111000001       3.05817177E-10
  0.111500002       3.04835102E-10
  0.112000003       2.98958358E-10
  0.112499997       2.88830293E-10
  0.112999998       2.75382273E-10
  0.113499999       2.59805566E-10
  0.114000000       2.43507353E-10
  0.114500001       2.28051703E-10
  0.115000002       2.15088530E-10
  0.115500003       2.06273595E-10
  0.115999997       2.03183678E-10
  0.116499998       2.07231704E-10
  0.116999999       2.19586280E-10
  0.117500000       2.41100973E-10
  0.118000001       2.72257716E-10
  0.118500002       3.13128246E-10
  0.119000003       3.63356817E-10
  0.119499996       4.22166607E-10
  0.119999997       4.88390106E-10
  0.120499998       5.60523683E-10
  0.120999999       6.36803887E-10
  0.121500000       7.15302595E-10
  0.122000001       7.94037003E-10
  0.122500002       8.71088202E-10
  0.123000003       9.44722633E-10
  0.123499997       1.01350972E-09
  0.123999998       1.07642917E-09
  0.124499999       1.13296084E-09
  0.125000000       1.18315302E-09
  0.125499994       1.22766197E-09
  0.126000002       1.26776201E-09
  0.126499996       1.30532207E-09
  0.127000004       1.34275024E-09
  0.127499998       1.38290701E-09
  0.128000006       1.42899159E-09
  0.128500000       1.48440615E-09
  0.128999993       1.55260338E-09
  0.129500002       1.63692759E-09
  0.129999995       1.74045522E-09
  0.130500004       1.86584503E-09
  0.130999997       2.01520622E-09
  0.131500006       2.18999086E-09
  0.131999999       2.39091991E-09
  0.132499993       2.61794586E-09
  0.133000001       2.87025714E-09
  0.133499995       3.14632231E-09
  0.134000003       3.44397755E-09
  0.134499997       3.76055187E-09
  0.135000005       4.09302281E-09
  0.135499999       4.43819914E-09
  0.136000007       4.79292028E-09
  0.136500001       5.15426146E-09
  0.136999995       5.51973667E-09
  0.137500003       5.88748472E-09
  0.137999997       6.25643493E-09
  0.138500005       6.62643496E-09
  0.138999999       6.99834102E-09
  0.139500007       7.37406447E-09
  0.140000001       7.75656606E-09
  0.140499994       8.14979728E-09
  0.141000003       8.55860627E-09
  0.141499996       8.98858854E-09
  0.142000005       9.44591072E-09
  0.142499998       9.93710270E-09
  0.143000007       1.04688418E-08
  0.143500000       1.10477218E-08
  0.143999994       1.16800383E-08
  0.144500002       1.23715980E-08
  0.144999996       1.31275435E-08
  0.145500004       1.39522349E-08
  0.145999998       1.48491734E-08
  0.146500006       1.58209730E-08
  0.147000000       1.68693912E-08
  0.147499993       1.79954185E-08
  0.148000002       1.91994065E-08
  0.148499995       2.04812611E-08
  0.149000004       2.18406413E-08
  0.149499997       2.32772113E-08
  0.150000006       2.47908911E-08
  0.150500000       2.63821054E-08
  0.150999993       2.80520229E-08
  0.151500002       2.98027736E-08
  0.151999995       3.16376152E-08
  0.152500004       3.35610686E-08
  0.152999997       3.55789815E-08
  0.153500006       3.76985625E-08
  0.153999999       3.99283309E-08
  0.154499993       4.22780104E-08
  0.155000001       4.47584156E-08
  0.155499995       4.73812243E-08
  0.156000003       5.01587962E-08
  0.156499997       5.31039142E-08
  0.157000005       5.62295668E-08
  0.157499999       5.95486966E-08
  0.158000007       6.30739976E-08
  0.158500001       6.68177691E-08
  0.158999994       7.07917849E-08
  0.159500003       7.50072218E-08
  0.159999996       7.94746740E-08
  0.160500005       8.42041956E-08
  0.160999998       8.92054643E-08
  0.161500007       9.44879233E-08
  0.162000000       1.00061065E-07
  0.162499994       1.05934674E-07
  0.163000003       1.12119153E-07
  0.163499996       1.18625827E-07
  0.164000005       1.25467295E-07
  0.164499998       1.32657661E-07
  0.165000007       1.40212904E-07
  0.165500000       1.48151031E-07
  0.165999994       1.56492277E-07
  0.166500002       1.65259195E-07
  0.166999996       1.74476696E-07
  0.167500004       1.84172052E-07
  0.167999998       1.94374778E-07
  0.168500006       2.05116521E-07
  0.169000000       2.16430834E-07
  0.169499993       2.28352917E-07
  0.170000002       2.40919491E-07
  0.170499995       2.54168384E-07
  0.171000004       2.68138365E-07
  0.171499997       2.82868967E-07
  0.172000006       2.98400266E-07
  0.172499999       3.14772791E-07
  0.172999993       3.32027412E-07
  0.173500001       3.50205426E-07
  0.173999995       3.69348669E-07
  0.174500003       3.89499547E-07
  0.174999997       4.10701432E-07
  0.175500005       4.32998860E-07
  0.175999999       4.56437931E-07
  0.176499993       4.81066593E-07
  0.177000001       5.06935123E-07
  0.177499995       5.34096614E-07
  0.178000003       5.62607113E-07
  0.178499997       5.92526362E-07
  0.179000005       6.23917686E-07
  0.179499999       6.56848783E-07
  0.180000007       6.91391392E-07
  0.180500001       7.27621966E-07
  0.180999994       7.65621280E-07
  0.181500003       8.05474883E-07
  0.181999996       8.47272702E-07
  0.182500005       8.91109437E-07
  0.182999998       9.37083655E-07
  0.183500007       9.85298470E-07
  0.184000000       1.03586092E-06
  0.184499994       1.08888230E-06
  0.185000002       1.14447710E-06
  0.185499996       1.20276411E-06
  0.186000004       1.26386544E-06
  0.186499998       1.32790694E-06
  0.187000006       1.39501867E-06
  0.187500000       1.46533432E-06
  0.187999994       1.53899191E-06
  0.188500002       1.61613377E-06
  0.188999996       1.69690770E-06
  0.189500004       1.78146593E-06
  0.189999998       1.86996692E-06
  0.190500006       1.96257497E-06
  0.191000000       2.05946162E-06
  0.191499993       2.16080480E-06
  0.192000002       2.26679049E-06
  0.192499995       2.37761174E-06
  0.193000004       2.49347113E-06
  0.193499997       2.61457922E-06
  0.194000006       2.74115541E-06
  0.194499999       2.87342891E-06
  0.194999993       3.01163755E-06
  0.195500001       3.15602938E-06
  0.195999995       3.30686180E-06
  0.196500003       3.46440197E-06
  0.196999997       3.62892706E-06
  0.197500005       3.80072333E-06
  0.197999999       3.98008842E-06
  0.198500007       4.16732928E-06
  0.199000001       4.36276378E-06
  0.199499995       4.56672024E-06
  0.200000003       4.77953699E-06
  0.200499997       5.00156466E-06
  0.201000005       5.23316476E-06
  0.201499999       5.47471109E-06
  0.202000007       5.72658837E-06
  0.202500001       5.98919587E-06
  0.202999994       6.26294559E-06
  0.203500003       6.54826272E-06
  0.203999996       6.84558700E-06
  0.204500005       7.15537362E-06
  0.204999998       7.47809190E-06
  0.205500007       7.81422932E-06
  0.206000000       8.16428746E-06
  0.206499994       8.52878384E-06
  0.207000002       8.90825686E-06
  0.207499996       9.30325859E-06
  0.208000004       9.71435929E-06
  0.208499998       1.01421492E-05
  0.209000006       1.05872350E-05
  0.209500000       1.10502433E-05
  0.209999993       1.15318180E-05
  0.210500002       1.20326258E-05
  0.210999995       1.25533479E-05
  0.211500004       1.30946901E-05
  0.211999997       1.36573735E-05
  0.212500006       1.42421432E-05
  0.213000000       1.48497647E-05
  0.213499993       1.54810259E-05
  0.214000002       1.61367352E-05
  0.214499995       1.68177230E-05
  0.215000004       1.75248460E-05
  0.215499997       1.82589829E-05
  0.216000006       1.90210358E-05
  0.216499999       1.98119360E-05
  0.216999993       2.06326367E-05
  0.217500001       2.14841184E-05
  0.217999995       2.23673924E-05
  0.218500003       2.32834936E-05
  0.218999997       2.42334881E-05
  0.219500005       2.52184655E-05
  0.219999999       2.62395497E-05
  0.220500007       2.72978905E-05
  0.221000001       2.83946702E-05
  0.221499994       2.95311020E-05
  0.222000003       3.07084229E-05
  0.222499996       3.19279061E-05
  0.223000005       3.31908450E-05
  0.223499998       3.44985747E-05
  0.224000007       3.58524630E-05
  0.224500000       3.72538889E-05
  0.224999994       3.87042819E-05
  0.225500003       4.02050828E-05
  0.225999996       4.17577867E-05
  0.226500005       4.33638997E-05
  0.226999998       4.50249572E-05
  0.227500007       4.67425452E-05
  0.228000000       4.85182718E-05
  0.228499994       5.03537631E-05
  0.229000002       5.22506962E-05
  0.229499996       5.42107737E-05
  0.230000004       5.62357272E-05
  0.230499998       5.83273322E-05
  0.231000006       6.04873894E-05
  0.231500000       6.27177360E-05
  0.231999993       6.50202564E-05
  0.232500002       6.73968534E-05
  0.232999995       6.98494623E-05
  0.233500004       7.23800767E-05
  0.233999997       7.49907122E-05
  0.234500006       7.76834058E-05
  0.234999999       8.04602532E-05
  0.235499993       8.33233644E-05
  0.236000001       8.62748930E-05
  0.236499995       8.93170145E-05
  0.237000003       9.24519627E-05
  0.237499997       9.56819495E-05
  0.238000005       9.90092667E-05
  0.238499999       1.02436206E-04
  0.238999993       1.05965082E-04
  0.239500001       1.09598252E-04
  0.239999995       1.13338079E-04
  0.240500003       1.17186974E-04
  0.240999997       1.21147343E-04
  0.241500005       1.25221603E-04
  0.241999999       1.29412263E-04
  0.242500007       1.33721755E-04
  0.243000001       1.38152580E-04
  0.243499994       1.42707286E-04
  0.244000003       1.47388375E-04
  0.244499996       1.52198423E-04
  0.245000005       1.57139977E-04
  0.245499998       1.62215656E-04
  0.246000007       1.67428007E-04
  0.246500000       1.72779677E-04
  0.246999994       1.78273287E-04
  0.247500002       1.83911485E-04
  0.247999996       1.89696904E-04
  0.248500004       1.95632179E-04
  0.248999998       2.01719973E-04
  0.249500006       2.07962948E-04
  0.250000000       2.14363739E-04
  0.250499994       2.20924994E-04
  0.250999987       2.27649347E-04
  0.251500010       2.34539402E-04
  0.252000004       2.41597765E-04
  0.252499998       2.48827040E-04
  0.252999991       2.56229745E-04
  0.253500015       2.63808412E-04
  0.254000008       2.71565543E-04
  0.254500002       2.79503613E-04
  0.254999995       2.87625036E-04
  0.255499989       2.95932143E-04
  0.256000012       3.04427376E-04
  0.256500006       3.13112891E-04
  0.256999999       3.21990985E-04
  0.257499993       3.31063871E-04
  0.257999986       3.40333645E-04
  0.258500010       3.49802343E-04
  0.259000003       3.59472062E-04
  0.259499997       3.69344692E-04
  0.259999990       3.79422185E-04
  0.260500014       3.89706285E-04
  0.261000007       4.00198769E-04
  0.261500001       4.10901266E-04
  0.261999995       4.21815377E-04
  0.262499988       4.32942528E-04
  0.263000011       4.44284116E-04
  0.263500005       4.55841451E-04
  0.263999999       4.67615668E-04
  0.264499992       4.79607785E-04
  0.264999986       4.91818762E-04
  0.265500009       5.04249474E-04
  0.266000003       5.16900502E-04
  0.266499996       5.29772486E-04
  0.266999990       5.42865717E-04
  0.267500013       5.56180428E-04
  0.268000007       5.69716736E-04
  0.268500000       5.83474524E-04
  0.268999994       5.97453560E-04
  0.269499987       6.11653377E-04
  0.270000011       6.26073277E-04
  0.270500004       6.40712562E-04
  0.270999998       6.55570242E-04
  0.271499991       6.70644979E-04
  0.272000015       6.85935549E-04
  0.272500008       7.01440091E-04
  0.273000002       7.17157032E-04
  0.273499995       7.33084220E-04
  0.273999989       7.49219442E-04
  0.274500012       7.65560195E-04
  0.275000006       7.82103860E-04
  0.275500000       7.98847468E-04
  0.275999993       8.15787876E-04
  0.276499987       8.32921709E-04
  0.277000010       8.50245182E-04
  0.277500004       8.67754454E-04
  0.277999997       8.85445392E-04
  0.278499991       9.03313456E-04
  0.279000014       9.21353872E-04
  0.279500008       9.39561636E-04
  0.280000001       9.57931275E-04
  0.280499995       9.76457261E-04
  0.280999988       9.95133538E-04
  0.281500012       1.01395394E-03
  0.282000005       1.03291182E-03
  0.282499999       1.05200033E-03
  0.282999992       1.07121200E-03
  0.283499986       1.09053974E-03
  0.284000009       1.10997527E-03
  0.284500003       1.12951046E-03
  0.284999996       1.14913681E-03
  0.285499990       1.16884534E-03
  0.286000013       1.18862686E-03
  0.286500007       1.20847195E-03
  0.287000000       1.22837047E-03
  0.287499994       1.24831218E-03
  0.287999988       1.26828649E-03
  0.288500011       1.28828234E-03
  0.289000005       1.30828877E-03
  0.289499998       1.32829358E-03
  0.289999992       1.34828500E-03
  0.290499985       1.36825047E-03
  0.291000009       1.38817739E-03
  0.291500002       1.40805251E-03
  0.291999996       1.42786244E-03
  0.292499989       1.44759309E-03
  0.293000013       1.46723050E-03
  0.293500006       1.48676021E-03
  0.294000000       1.50616688E-03
  0.294499993       1.52543560E-03
  0.294999987       1.54455053E-03
  0.295500010       1.56349584E-03
  0.296000004       1.58225524E-03
  0.296499997       1.60081184E-03
  0.296999991       1.61914888E-03
  0.297500014       1.63724914E-03
  0.298000008       1.65509491E-03
  0.298500001       1.67266838E-03
  0.298999995       1.68995105E-03
  0.299499989       1.70692476E-03
  0.300000012       1.72357052E-03
  0.300500005       1.73986913E-03
  0.300999999       1.75580126E-03
  0.301499993       1.77134736E-03
  0.301999986       1.78648729E-03
  0.302500010       1.80120103E-03
  0.303000003       1.81546807E-03
  0.303499997       1.82926771E-03
  0.303999990       1.84257899E-03
  0.304500014       1.85538118E-03
  0.305000007       1.86765264E-03
  0.305500001       1.87937228E-03
  0.305999994       1.89051824E-03
  0.306499988       1.90106884E-03
  0.307000011       1.91100233E-03
  0.307500005       1.92029693E-03
  0.307999998       1.92893075E-03
  0.308499992       1.93688134E-03
  0.308999985       1.94412668E-03
  0.309500009       1.95064466E-03
  0.310000002       1.95641303E-03
  0.310499996       1.96140981E-03
  0.310999990       1.96561264E-03
  0.311500013       1.96899963E-03
  0.312000006       1.97154866E-03
  0.312500000       1.97323738E-03
  0.312999994       1.97404413E-03
  0.313499987       1.97394704E-03
  0.314000010       1.97292422E-03
  0.314500004       1.97095424E-03
  0.314999998       1.96801615E-03
  0.315499991       1.96408806E-03
  0.316000015       1.95914926E-03
  0.316500008       1.95317925E-03
  0.317000002       1.94615766E-03
  0.317499995       1.93806412E-03
  0.317999989       1.92887906E-03
  0.318500012       1.91858306E-03
  0.319000006       1.90715690E-03
  0.319499999       1.89458218E-03
  0.319999993       1.88084075E-03
  0.320499986       1.86591514E-03
  0.321000010       1.84978801E-03
  0.321500003       1.83244317E-03
  0.321999997       1.81386422E-03
  0.322499990       1.79403601E-03
  0.323000014       1.77294388E-03
  0.323500007       1.75057352E-03
  0.324000001       1.72691164E-03
  0.324499995       1.70194532E-03
  0.324999988       1.67566258E-03
  0.325500011       1.64805225E-03
  0.326000005       1.61910348E-03
  0.326499999       1.58880651E-03
  0.326999992       1.55715260E-03
  0.327499986       1.52413314E-03
  0.328000009       1.48974103E-03
  0.328500003       1.45396986E-03
  0.328999996       1.41681382E-03
  0.329499990       1.37826859E-03
  0.330000013       1.33833033E-03
  0.330500007       1.29699660E-03
  0.331000000       1.25426555E-03
  0.331499994       1.21013704E-03
  0.331999987       1.16461131E-03
  0.332500011       1.11769012E-03
  0.333000004       1.06937625E-03
  0.333499998       1.01967377E-03
  0.333999991       9.68587818E-04
  0.334500015       9.16124904E-04
  0.335000008       8.62292596E-04
  0.335500002       8.07099685E-04
  0.335999995       7.50556297E-04
  0.336499989       6.92673668E-04
  0.337000012       6.33464369E-04
  0.337500006       5.72942256E-04
  0.338000000       5.11122227E-04
  0.338499993       4.48020612E-04
  0.338999987       3.83654988E-04
  0.339500010       3.18044156E-04
  0.340000004       2.51208286E-04
  0.340499997       1.83168711E-04
  0.340999991       1.13948139E-04
  0.341500014       4.35706206E-05
  0.342000008      -2.79385567E-05
  0.342500001      -1.00552686E-04
  0.342999995      -1.74243702E-04
  0.343499988      -2.48982222E-04
  0.344000012      -3.24737543E-04
  0.344500005      -4.01477475E-04
  0.344999999      -4.79168579E-04
  0.345499992      -5.57776133E-04
  0.345999986      -6.37263875E-04
  0.346500009      -7.17594346E-04
  0.347000003      -7.98728550E-04
  0.347499996      -8.80626496E-04
  0.347999990      -9.63246915E-04
  0.348500013      -1.04654708E-03
  0.349000007      -1.13048323E-03
  0.349500000      -1.21501042E-03
  0.349999994      -1.30008243E-03
  0.350499988      -1.38565199E-03
  0.351000011      -1.47167069E-03
  0.351500005      -1.55808940E-03
  0.351999998      -1.64485734E-03
  0.352499992      -1.73192343E-03
  0.352999985      -1.81923492E-03
  0.353500009      -1.90673862E-03
  0.354000002      -1.99438003E-03
  0.354499996      -2.08210433E-03
  0.354999989      -2.16985517E-03
  0.355500013      -2.25757575E-03
  0.356000006      -2.34520854E-03
  0.356500000      -2.43269489E-03
  0.356999993      -2.51997588E-03
  0.357499987      -2.60699098E-03
  0.358000010      -2.69368035E-03
  0.358500004      -2.77998229E-03
  0.358999997      -2.86583556E-03
  0.359499991      -2.95117800E-03
  0.360000014      -3.03594745E-03
  0.360500008      -3.12008034E-03
  0.361000001      -3.20351380E-03
  0.361499995      -3.28618474E-03
  0.361999989      -3.36802891E-03
  0.362500012      -3.44898296E-03
  0.363000005      -3.52898333E-03
  0.363499999      -3.60796624E-03
  0.363999993      -3.68586788E-03
  0.364499986      -3.76262469E-03
  0.365000010      -3.83817405E-03
  0.365500003      -3.91245261E-03
  0.365999997      -3.98539705E-03
  0.366499990      -4.05694591E-03
  0.367000014      -4.12703725E-03
  0.367500007      -4.19560960E-03
  0.368000001      -4.26260242E-03
  0.368499994      -4.32795566E-03
  0.368999988      -4.39161062E-03
  0.369500011      -4.45350818E-03
  0.370000005      -4.51359060E-03
  0.370499998      -4.57180152E-03
  0.370999992      -4.62808507E-03
  0.371499985      -4.68238629E-03
  0.372000009      -4.73465212E-03
  0.372500002      -4.78482991E-03
  0.372999996      -4.83286893E-03
  0.373499990      -4.87871887E-03
  0.374000013      -4.92233085E-03
  0.374500006      -4.96365875E-03
  0.375000000      -5.00265602E-03
  0.375499994      -5.03927935E-03
  0.375999987      -5.07348590E-03
  0.376500010      -5.10523561E-03
  0.377000004      -5.13448752E-03
  0.377499998      -5.16120624E-03
  0.377999991      -5.18535590E-03
  0.378500015      -5.20690298E-03
  0.379000008      -5.22581534E-03
  0.379500002      -5.24206553E-03
  0.379999995      -5.25562512E-03
  0.380499989      -5.26646897E-03
  0.381000012      -5.27457474E-03
  0.381500006      -5.27992100E-03
  0.381999999      -5.28249051E-03
  0.382499993      -5.28226653E-03
  0.382999986      -5.27923647E-03
  0.383500010      -5.27338870E-03
  0.384000003      -5.26471529E-03
  0.384499997      -5.25320880E-03
  0.384999990      -5.23886597E-03
  0.385500014      -5.22168586E-03
  0.386000007      -5.20166941E-03
  0.386500001      -5.17882127E-03
  0.386999995      -5.15314750E-03
  0.387499988      -5.12465648E-03
  0.388000011      -5.09336032E-03
  0.388500005      -5.05927345E-03
  0.388999999      -5.02241170E-03
  0.389499992      -4.98279510E-03
  0.389999986      -4.94044600E-03
  0.390500009      -4.89538861E-03
  0.391000003      -4.84765042E-03
  0.391499996      -4.79726167E-03
  0.391999990      -4.74425545E-03
  0.392500013      -4.68866713E-03
  0.393000007      -4.63053444E-03
  0.393500000      -4.56989789E-03
  0.393999994      -4.50680126E-03
  0.394499987      -4.44129109E-03
  0.395000011      -4.37341584E-03
  0.395500004      -4.30322718E-03
  0.395999998      -4.23077820E-03
  0.396499991      -4.15612478E-03
  0.397000015      -4.07932652E-03
  0.397500008      -4.00044443E-03
  0.398000002      -3.91954090E-03
  0.398499995      -3.83668183E-03
  0.398999989      -3.75193474E-03
  0.399500012      -3.66536924E-03
  0.400000006      -3.57705751E-03
  0.400500000      -3.48707242E-03
  0.400999993      -3.39549058E-03
  0.401499987      -3.30238882E-03
  0.402000010      -3.20784724E-03
  0.402500004      -3.11194686E-03
  0.402999997      -3.01477080E-03
  0.403499991      -2.91640311E-03
  0.404000014      -2.81693088E-03
  0.404500008      -2.71644164E-03
  0.405000001      -2.61502503E-03
  0.405499995      -2.51277164E-03
  0.405999988      -2.40977318E-03
  0.406500012      -2.30612303E-03
  0.407000005      -2.20191549E-03
  0.407499999      -2.09724577E-03
  0.407999992      -1.99221005E-03
  0.408499986      -1.88690529E-03
  0.409000009      -1.78142928E-03
  0.409500003      -1.67587993E-03
  0.409999996      -1.57035596E-03
  0.410499990      -1.46495621E-03
  0.411000013      -1.35978009E-03
  0.411500007      -1.25492667E-03
  0.412000000      -1.15049549E-03
  0.412499994      -1.04658550E-03
  0.412999988      -9.43295716E-04
  0.413500011      -8.40724853E-04
  0.414000005      -7.38971285E-04
  0.414499998      -6.38132682E-04
  0.414999992      -5.38306427E-04
  0.415499985      -4.39588912E-04
  0.416000009      -3.42075888E-04
  0.416500002      -2.45862495E-04
  0.416999996      -1.51042666E-04
  0.417499989      -5.77092687E-05
  0.418000013       3.40457264E-05
  0.418500006       1.24131839E-04
  0.419000000       2.12459854E-04
  0.419499993       2.98941974E-04
  0.419999987       3.83492152E-04
  0.420500010       4.66025813E-04
  0.421000004       5.46460156E-04
  0.421499997       6.24714361E-04
  0.421999991       7.00709585E-04
  0.422500014       7.74368993E-04
  0.423000008       8.45617789E-04
  0.423500001       9.14384029E-04
  0.423999995       9.80597688E-04
  0.424499989       1.04419107E-03
  0.425000012       1.10509980E-03
  0.425500005       1.16326171E-03
  0.425999999       1.21861731E-03
  0.426499993       1.27111026E-03
  0.426999986       1.32068689E-03
  0.427500010       1.36729679E-03
  0.428000003       1.41089247E-03